 Entering Gaussian System, Link 0=g16
 AtFile(1): /home/malgo/Basis_sets/n07d_pbe0.gbs
            -H 0
             6-31G
             S   1 1.00       0.000000000000
                  0.4000000000D+00  0.10000000D+01
             P   1 1.00       0.000000000000
                  0.7500000000D+00  0.10000000D+01
             ****
             -He 0
             6-31+G**
             ****
             -Li 0
             6-31+G**
             ****
             -Be 0
             6-31+G**
             ****
             -B 0
             6-31G
             S   1 1.00       0.000000000000
                  0.7000000000D+01  0.1000000000D+01
             P   1 1.00       0.000000000000
                  0.3500000000D-01  0.1000000000D+01
             D   1 1.00
                  0.3430000000D+00  0.1000000000D+01
             ****
             -C 0
             6-31G
             S   1 1.00       0.000000000000
                  0.8700000000D+01  0.1000000000D+01
             P   1 1.00       0.000000000000
                  0.5000000000D-01  0.1000000000D+01
             D   1 1.00
                  0.8200000000D+00  0.1000000000D+01
             ****
             -N 0
             6-31G
             S   1 1.00       0.000000000000
                  0.1370000000D+02  0.1000000000D+01
             P   1 1.00       0.000000000000
                  0.5300000000D-01  0.1000000000D+01
             D   1 1.00       0.000000000000
                  0.1015000000D+01  0.1000000000D+01
             ****
             -O 0
             6-31G
             S   1 1.00
                  0.1600000000D+02  0.1000000000D+01
             P   1 1.00       0.000000000000
                  0.6500000000D-01  0.1000000000D+01
             D   1 1.00        0.000000000000
                  0.1190000000D+01  0.1000000000D+01
             D   1 1.00        0.000000000000
                  0.1800000000D+00  0.1000000000D+01
             ****
             -F 0
             6-31G
             S   1 1.00
                  0.1770000000D+02  0.1000000000D+01
             P   1 1.00       0.000000000000
                  0.8300000000D-01  0.1000000000D+01
             D   1 1.00       0.000000000000
                  1.3700000000D+00  0.1000000000D+01
             D   1 1.00       0.000000000000
                  0.2300000000D+00  0.1000000000D+01
             ****
             -Ne 0
             6-31+G**
             ****
             -Na 0
             6-31+G**
             ****
             -Mg 0
             6-31+G**
             ****
             -Al 0
             6-31G
             S   1 1.00      0.000000000000
                  0.3100000000D+01  0.1000000000D+01
             P   1 1.00      0.000000000000
                  0.1500000000D-01  0.1000000000D+01
             D   1 1.00      0.000000000000
                  0.1890000000D+00  0.1000000000D+01
             ****
             -Si 0
             6-31G
             S   1 1.00      0.000000000000
                  0.5000000000D+01  0.1000000000D+01
             P   1 1.00       0.000000000000
                  0.3300000000D-01  0.1000000000D+01
             D   1 1.0        0.000000000000
                  0.2750000000D+00  0.1000000000D+01
             ****
             -P  0
             6-31G
             S   1 1.00       0.000000000000
                  0.6300000000D+01  0.1000000000D+01
             P   1 1.00       0.000000000000
                  0.3500000000D-01  0.1000000000D+01
             D   1 1.00       0.000000000000
                  0.3730000000D+00  0.1000000000D+01
             ****
             -S  0
             6-31G
             S   1  1.00      0.000000000000
                  0.7500000000D+01  0.1000000000D+01
             P   1 1.00       0.000000000000
                  0.4100000000D-01  0.1000000000D+01
             D   1 1.00       0.000000000000
                  0.4790000000D+00  0.1000000000D+01
             ****
            -Cl 0
             6-31G
             S   1 1.00       0.000000000000
                  0.8500000000D+01  0.1000000000D+01
             P   1 1.00       0.000000000000
                  0.4800000000D-01  0.1000000000D+01
             D   1 1.00       0.000000000000
                  0.6000000000D+00  0.1000000000D+01
             D   1 1.00       0.000000000000
                  0.1960000000D+00  0.1000000000D+01
             ****
            -Br 0
             S   3 1.00       0.000000000000
                  0.4721881000D+01  0.1749732514D+00
                  0.2257555000D+01 -0.7074172290D+00
                  0.3896080000D+00  0.1258999543D+01
             S   1 1.00       0.000000000000
                  0.1471340000D+00  0.1000000000D+01
             P   3 1.00       0.000000000000
                  0.1896942000D+01 -0.2464576731D+00
                  0.9108990000D+00  0.3623179892D+00
                  0.3168550000D+00  0.8338469725D+00
             P   1 1.00       0.000000000000
                  0.1095030000D+00  0.1000000000D+01
             P   1 1.00       0.000000000000
                  0.3609700000D-01  0.1000000000D+01
             D   1 1.00
                  0.4750000000D+00  0.1000000000D+01
             D   1 1.00
                  0.1280000000D+00  0.1000000000D+01
             ****
            -I   0
             S   3 1.00       0.000000000000
                  0.2122765000D+01  0.2063429899D+01
                  0.1770481000D+01 -0.2869526473D+01
                  0.3130840000D+00  0.1404747074D+01
             S   1 1.00       0.000000000000
                  0.1320000000D+00  0.1000000000D+01
             P   3 1.00       0.000000000000
                  0.2432887000D+01  0.7732753148D+00
                  0.2137249000D+01 -0.1020833156D+01
                  0.3145460000D+00  0.1095666871D+01
             P   1 1.00       0.000000000000
                  0.1049450000D+00  0.1000000000D+01
             P   1 1.00       0.000000000000
                  0.3264100000D-01  0.1000000000D+01
             D   1 1.00
                  0.300000000          1.00000000
             D   1 1.00
                  0.090000000          1.00000000
             ****
             -Zn 0
             SP   6 1.00       0.000000000000
                  0.6936492000D+02 -0.4440098182D-02 -0.7689261805D-02
                  0.2362082000D+02  0.7505253308D-01 -0.2997981924D-01
                  0.1018471000D+02  0.2533111104D+00  0.7082410821D-01
                  0.4334082000D+01 -0.2881897118D+00  0.4046140897D+00
                  0.1810918000D+01 -0.7267052298D+00  0.4882324876D+00
                  0.7148410000D+00 -0.2133439088D+00  0.1751969956D+00
             SP   3 1.00       0.000000000000
                  0.2823842000D+01  0.4898545031D-01 -0.1586762981D+00
                  0.1039543000D+01  0.2592794075D+00  0.8379326898D-01
                  0.1432640000D+00 -0.1115711463D+01  0.9840546881D+00
             SP   1 1.00       0.000000000000
                  0.4929600000D-01  0.1000000000D+01  0.1000000000D+01
             S    1 1.00       0.000000000000
                  0.1620000000D+00  0.1000000000D+01
             D    3 1.00       0.000000000000
                  0.3370764000D+02  0.9262647815D-01
                  0.9061106000D+01  0.4002979920D+00
                  0.2738383000D+01  0.6896607863D+00
             D    1 1.00
                  0.2440000000D+01  0.1000000000D+01
             D    1 1.00       0.000000000000
                  0.7302940000D+00  0.1000000000D+01
             D    1 1.00       0.000000000000
                  0.1620000000D+00  0.1000000000D+01
            ****
 Initial command:
 /data2/g16/g16/l1.exe "/tmp/Gau-28226.inp" -scrdir="/tmp/"
 Entering Link 1 = /data2/g16/g16/l1.exe PID=     28227.
  
 Copyright (c) 1988-2017, Gaussian, Inc.  All Rights Reserved.
  
 This is part of the Gaussian(R) 16 program.  It is based on
 the Gaussian(R) 09 system (copyright 2009, Gaussian, Inc.),
 the Gaussian(R) 03 system (copyright 2003, Gaussian, Inc.),
 the Gaussian(R) 98 system (copyright 1998, Gaussian, Inc.),
 the Gaussian(R) 94 system (copyright 1995, Gaussian, Inc.),
 the Gaussian 92(TM) system (copyright 1992, Gaussian, Inc.),
 the Gaussian 90(TM) system (copyright 1990, Gaussian, Inc.),
 the Gaussian 88(TM) system (copyright 1988, Gaussian, Inc.),
 the Gaussian 86(TM) system (copyright 1986, Carnegie Mellon
 University), and the Gaussian 82(TM) system (copyright 1983,
 Carnegie Mellon University). Gaussian is a federally registered
 trademark of Gaussian, Inc.
  
 This software contains proprietary and confidential information,
 including trade secrets, belonging to Gaussian, Inc.
  
 This software is provided under written license and may be
 used, copied, transmitted, or stored only in accord with that
 written license.
  
 The following legend is applicable only to US Government
 contracts under FAR:
  
                    RESTRICTED RIGHTS LEGEND
  
 Use, reproduction and disclosure by the US Government is
 subject to restrictions as set forth in subparagraphs (a)
 and (c) of the Commercial Computer Software - Restricted
 Rights clause in FAR 52.227-19.
  
 Gaussian, Inc.
 340 Quinnipiac St., Bldg. 40, Wallingford CT 06492
  
  
 ---------------------------------------------------------------
 Warning -- This program may not be used in any manner that
 competes with the business of Gaussian, Inc. or will provide
 assistance to any competitor of Gaussian, Inc.  The licensee
 of this program is prohibited from giving any competitor of
 Gaussian, Inc. access to this program.  By using this program,
 the user acknowledges that Gaussian, Inc. is engaged in the
 business of creating and licensing software in the field of
 computational chemistry and represents and warrants to the
 licensee that it is not a competitor of Gaussian, Inc. and that
 it will not use this program in any manner prohibited above.
 ---------------------------------------------------------------
  

 Cite this work as:
 Gaussian 16, Revision B.01,
 M. J. Frisch, G. W. Trucks, H. B. Schlegel, G. E. Scuseria, 
 M. A. Robb, J. R. Cheeseman, G. Scalmani, V. Barone, 
 G. A. Petersson, H. Nakatsuji, X. Li, M. Caricato, A. V. Marenich, 
 J. Bloino, B. G. Janesko, R. Gomperts, B. Mennucci, H. P. Hratchian, 
 J. V. Ortiz, A. F. Izmaylov, J. L. Sonnenberg, D. Williams-Young, 
 F. Ding, F. Lipparini, F. Egidi, J. Goings, B. Peng, A. Petrone, 
 T. Henderson, D. Ranasinghe, V. G. Zakrzewski, J. Gao, N. Rega, 
 G. Zheng, W. Liang, M. Hada, M. Ehara, K. Toyota, R. Fukuda, 
 J. Hasegawa, M. Ishida, T. Nakajima, Y. Honda, O. Kitao, H. Nakai, 
 T. Vreven, K. Throssell, J. A. Montgomery, Jr., J. E. Peralta, 
 F. Ogliaro, M. J. Bearpark, J. J. Heyd, E. N. Brothers, K. N. Kudin, 
 V. N. Staroverov, T. A. Keith, R. Kobayashi, J. Normand, 
 K. Raghavachari, A. P. Rendell, J. C. Burant, S. S. Iyengar, 
 J. Tomasi, M. Cossi, J. M. Millam, M. Klene, C. Adamo, R. Cammi, 
 J. W. Ochterski, R. L. Martin, K. Morokuma, O. Farkas, 
 J. B. Foresman, and D. J. Fox, Gaussian, Inc., Wallingford CT, 2016.
 
 ******************************************
 Gaussian 16:  AM64L-G16RevB.01 20-Dec-2017
                17-Jun-2019 
 ******************************************
 %chk=MTN_PBE0_-0.27.chk
 %mem=60GB
 %nprocshared=12
 Will use up to   12 processors via shared memory.
 -----------------
 #p gen 6d pbe1pbe
 -----------------
 1/38=1,172=1/1;
 2/12=2,17=6,18=5,40=1/2;
 3/5=7,8=2,11=2,25=1,30=1,74=-13/1,2,3;
 4//1;
 5/5=2,38=5/2;
 6/7=2,8=2,9=2,10=2,28=1/1;
 99/5=1,9=1/99;
 Leave Link    1 at Mon Jun 17 21:30:44 2019, MaxMem=  8053063680 cpu:               0.0 elap:               0.1
 (Enter /data2/g16/g16/l101.exe)
 ------------------
 start preoptimized
 ------------------
 Symbolic Z-matrix:
 Charge =  0 Multiplicity = 2
 O                    -3.76528   0.20785   0.8672 
 N                    -2.60703   0.03467   0.38402 
 C                    -2.16043  -1.26783  -0.15613 
 C                    -0.88188  -0.84969  -0.82154 
 C                    -0.6062    0.44937  -0.65859 
 C                     0.60475   1.12578  -1.19939 
 S                     1.94217   1.44076   0.03329 
 C                    -1.69171   1.16543   0.11654 
 C                    -1.23234   1.76591   1.44901 
 C                    -2.4263    2.21845  -0.71731 
 C                    -3.2137   -1.80794  -1.12718 
 C                    -1.91544  -2.25946   0.98643 
 H                    -0.24233  -1.55887  -1.34031 
 H                     1.06139   0.53965  -2.00374 
 H                     0.38875   2.1298   -1.58337 
 H                    -0.66192   1.03864   2.03622 
 H                    -0.60278   2.64747   1.28996 
 H                    -2.11653   2.07049   2.02022 
 H                    -3.31779   2.54354  -0.17445 
 H                    -1.78859   3.09283  -0.89047 
 H                    -2.7359    1.80857  -1.68519 
 H                    -3.37269  -1.11586  -1.95876 
 H                    -2.89838  -2.77393  -1.53088 
 H                    -4.16287  -1.93875  -0.59494 
 H                    -2.84295  -2.40691   1.55177 
 H                    -1.58978  -3.22631   0.58897 
 H                    -1.13991  -1.88755   1.6665 
 S                     2.75882  -0.53489   0.11028 
 O                     2.33703  -1.21319   1.35312 
 O                     2.50824  -1.18386  -1.20356 
 C                     4.51009  -0.16848   0.24795 
 H                     4.65955   0.44902   1.13419 
 H                     4.99941  -1.13919   0.36441 
 H                     4.8304    0.33451  -0.666 
 
 ITRead=  0  0  0  0  0  0  0  0  0  0  0  0  0  0  0  0  0  0  0  0
 ITRead=  0  0  0  0  0  0  0  0  0  0  0  0  0  0
 MicOpt= -1 -1 -1 -1 -1 -1 -1 -1 -1 -1 -1 -1 -1 -1 -1 -1 -1 -1 -1 -1
 MicOpt= -1 -1 -1 -1 -1 -1 -1 -1 -1 -1 -1 -1 -1 -1
 NAtoms=     34 NQM=       34 NQMF=       0 NMMI=      0 NMMIF=      0
                NMic=       0 NMicF=      0.
                    Isotopes and Nuclear Properties:
 (Nuclear quadrupole moments (NQMom) in fm**2, nuclear magnetic moments (NMagM)
  in nuclear magnetons)

  Atom         1           2           3           4           5           6           7           8           9          10
 IAtWgt=          16          14          12          12          12          12          32          12          12          12
 AtmWgt=  15.9949146  14.0030740  12.0000000  12.0000000  12.0000000  12.0000000  31.9720718  12.0000000  12.0000000  12.0000000
 NucSpn=           0           2           0           0           0           0           0           0           0           0
 AtZEff=   0.0000000   0.0000000   0.0000000   0.0000000   0.0000000   0.0000000   0.0000000   0.0000000   0.0000000   0.0000000
 NQMom=    0.0000000   2.0440000   0.0000000   0.0000000   0.0000000   0.0000000   0.0000000   0.0000000   0.0000000   0.0000000
 NMagM=    0.0000000   0.4037610   0.0000000   0.0000000   0.0000000   0.0000000   0.0000000   0.0000000   0.0000000   0.0000000
 AtZNuc=   8.0000000   7.0000000   6.0000000   6.0000000   6.0000000   6.0000000  16.0000000   6.0000000   6.0000000   6.0000000

  Atom        11          12          13          14          15          16          17          18          19          20
 IAtWgt=          12          12           1           1           1           1           1           1           1           1
 AtmWgt=  12.0000000  12.0000000   1.0078250   1.0078250   1.0078250   1.0078250   1.0078250   1.0078250   1.0078250   1.0078250
 NucSpn=           0           0           1           1           1           1           1           1           1           1
 AtZEff=   0.0000000   0.0000000   0.0000000   0.0000000   0.0000000   0.0000000   0.0000000   0.0000000   0.0000000   0.0000000
 NQMom=    0.0000000   0.0000000   0.0000000   0.0000000   0.0000000   0.0000000   0.0000000   0.0000000   0.0000000   0.0000000
 NMagM=    0.0000000   0.0000000   2.7928460   2.7928460   2.7928460   2.7928460   2.7928460   2.7928460   2.7928460   2.7928460
 AtZNuc=   6.0000000   6.0000000   1.0000000   1.0000000   1.0000000   1.0000000   1.0000000   1.0000000   1.0000000   1.0000000

  Atom        21          22          23          24          25          26          27          28          29          30
 IAtWgt=           1           1           1           1           1           1           1          32          16          16
 AtmWgt=   1.0078250   1.0078250   1.0078250   1.0078250   1.0078250   1.0078250   1.0078250  31.9720718  15.9949146  15.9949146
 NucSpn=           1           1           1           1           1           1           1           0           0           0
 AtZEff=   0.0000000   0.0000000   0.0000000   0.0000000   0.0000000   0.0000000   0.0000000   0.0000000   0.0000000   0.0000000
 NQMom=    0.0000000   0.0000000   0.0000000   0.0000000   0.0000000   0.0000000   0.0000000   0.0000000   0.0000000   0.0000000
 NMagM=    2.7928460   2.7928460   2.7928460   2.7928460   2.7928460   2.7928460   2.7928460   0.0000000   0.0000000   0.0000000
 AtZNuc=   1.0000000   1.0000000   1.0000000   1.0000000   1.0000000   1.0000000   1.0000000  16.0000000   8.0000000   8.0000000

  Atom        31          32          33          34
 IAtWgt=          12           1           1           1
 AtmWgt=  12.0000000   1.0078250   1.0078250   1.0078250
 NucSpn=           0           1           1           1
 AtZEff=   0.0000000   0.0000000   0.0000000   0.0000000
 NQMom=    0.0000000   0.0000000   0.0000000   0.0000000
 NMagM=    0.0000000   2.7928460   2.7928460   2.7928460
 AtZNuc=   6.0000000   1.0000000   1.0000000   1.0000000
 Leave Link  101 at Mon Jun 17 21:30:45 2019, MaxMem=  8053063680 cpu:               0.0 elap:               0.2
 (Enter /data2/g16/g16/l202.exe)
                          Input orientation:                          
 ---------------------------------------------------------------------
 Center     Atomic      Atomic             Coordinates (Angstroms)
 Number     Number       Type             X           Y           Z
 ---------------------------------------------------------------------
      1          8           0       -3.765282    0.207849    0.867201
      2          7           0       -2.607031    0.034669    0.384021
      3          6           0       -2.160433   -1.267829   -0.156132
      4          6           0       -0.881883   -0.849692   -0.821539
      5          6           0       -0.606204    0.449374   -0.658588
      6          6           0        0.604745    1.125776   -1.199388
      7         16           0        1.942167    1.440761    0.033285
      8          6           0       -1.691706    1.165435    0.116541
      9          6           0       -1.232336    1.765910    1.449011
     10          6           0       -2.426299    2.218454   -0.717314
     11          6           0       -3.213701   -1.807944   -1.127180
     12          6           0       -1.915442   -2.259464    0.986431
     13          1           0       -0.242333   -1.558874   -1.340313
     14          1           0        1.061389    0.539649   -2.003742
     15          1           0        0.388748    2.129795   -1.583368
     16          1           0       -0.661915    1.038640    2.036219
     17          1           0       -0.602783    2.647465    1.289961
     18          1           0       -2.116528    2.070491    2.020222
     19          1           0       -3.317792    2.543535   -0.174446
     20          1           0       -1.788585    3.092830   -0.890469
     21          1           0       -2.735898    1.808568   -1.685186
     22          1           0       -3.372685   -1.115858   -1.958764
     23          1           0       -2.898384   -2.773933   -1.530876
     24          1           0       -4.162869   -1.938748   -0.594938
     25          1           0       -2.842951   -2.406914    1.551770
     26          1           0       -1.589777   -3.226313    0.588968
     27          1           0       -1.139909   -1.887550    1.666499
     28         16           0        2.758823   -0.534888    0.110276
     29          8           0        2.337032   -1.213190    1.353124
     30          8           0        2.508239   -1.183862   -1.203559
     31          6           0        4.510088   -0.168480    0.247946
     32          1           0        4.659552    0.449018    1.134187
     33          1           0        4.999413   -1.139187    0.364406
     34          1           0        4.830398    0.334514   -0.665995
 ---------------------------------------------------------------------
                    Distance matrix (angstroms):
                    1          2          3          4          5
     1  O    0.000000
     2  N    1.266886   0.000000
     3  C    2.408397   1.479093   0.000000
     4  C    3.504886   2.282894   1.500765   0.000000
     5  C    3.516552   2.293975   2.369995   1.337955   0.000000
     6  C    4.920418   3.743421   3.803148   2.501061   1.488752
     7  S    5.898344   4.774444   4.919722   3.735259   2.820591
     8  C    2.404200   1.479188   2.492956   2.365702   1.513897
     9  C    3.030160   2.453810   3.555478   3.481320   2.562671
    10  C    2.888961   2.452452   3.541155   3.436510   2.538866
    11  C    2.888809   2.459065   1.531023   2.539496   3.480532
    12  C    3.086059   2.470676   1.532583   2.514847   3.428993
    13  H    4.517256   3.332342   2.272906   1.086780   2.151793
    14  H    5.625758   4.406101   4.130469   2.665366   2.144401
    15  H    5.191833   4.151489   4.480979   3.327496   2.160778
    16  H    3.418728   2.742479   3.517351   3.432341   2.759044
    17  H    4.016448   3.415324   4.454996   4.094684   2.937424
    18  H    2.741766   2.657502   3.985326   4.257631   3.476366
    19  H    2.596287   2.666735   3.983254   4.226863   3.460146
    20  H    3.914058   3.412701   4.437665   4.046028   2.905108
    21  H    3.183805   2.728542   3.483301   3.354043   2.727070
    22  H    3.145220   2.720033   2.177644   2.751040   3.434214
    23  H    3.923431   3.411739   2.168604   2.876133   4.050270
    24  H    2.627509   2.696918   2.156950   3.464428   4.284512
    25  H    2.855926   2.716730   2.163394   3.450119   4.248188
    26  H    4.074764   3.422106   2.171746   2.852888   4.004309
    27  H    3.452848   2.737174   2.178877   2.708147   3.339474
    28  S    6.609731   5.402936   4.980688   3.771223   3.589336
    29  O    6.284402   5.190383   4.744263   3.901628   3.933668
    30  O    6.751442   5.492833   4.785463   3.427905   3.558681
    31  C    8.307036   7.121318   6.772570   5.539061   5.232589
    32  H    8.432513   7.316944   7.150153   6.018223   5.562574
    33  H    8.881846   7.696513   7.179896   6.006656   5.915487
    34  H    8.732265   7.517166   7.190214   5.835811   5.437820
                    6          7          8          9         10
     6  C    0.000000
     7  S    1.845913   0.000000
     8  C    2.647060   3.645239   0.000000
     9  C    3.286131   3.491056   1.532014   0.000000
    10  C    3.257847   4.500189   1.530944   2.514619   0.000000
    11  C    4.815855   6.203526   3.564308   4.830631   4.123090
    12  C    4.752788   5.429668   3.540720   4.109045   4.818244
    13  H    2.818643   3.956845   3.412472   4.451362   4.407498
    14  H    1.095013   2.395256   3.530827   4.322776   4.078879
    15  H    1.096426   2.345516   2.854465   3.457694   2.946591
    16  H    3.475798   3.309787   2.182134   1.095041   3.476630
    17  H    3.157613   3.084176   2.181532   1.094885   2.745617
    18  H    4.320151   4.562618   2.150256   1.095832   2.758977
    19  H    4.294979   5.378330   2.151276   2.754894   1.093226
    20  H    3.113320   4.183439   2.176765   2.746506   1.095991
    21  H    3.444140   4.997271   2.179490   3.476451   1.095735
    22  H    4.628339   6.225127   3.512389   4.949607   3.681641
    23  H    5.252573   6.606147   4.437192   5.680283   5.080224
    24  H    5.699720   7.006227   4.030980   5.146867   4.506992
    25  H    5.651139   6.325168   4.018324   4.474047   5.168788
    26  H    5.191803   5.879200   4.418261   5.078359   5.661416
    27  H    4.509685   4.821227   3.468078   3.661095   4.919007
    28  S    3.018787   2.139169   4.764278   4.797419   5.928852
    29  O    3.871291   2.990209   4.839186   4.650228   6.225128
    30  O    2.992947   2.956157   4.990130   5.452448   6.013473
    31  C    4.361373   3.038084   6.344986   6.177366   7.398827
    32  H    4.727053   3.095112   6.472043   6.045466   7.534470
    33  H    5.185423   4.014041   7.081228   6.960650   8.221014
    34  H    4.332060   3.170907   6.621226   6.578669   7.497434
                   11         12         13         14         15
    11  C    0.000000
    12  C    2.521249   0.000000
    13  H    2.989396   2.950230   0.000000
    14  H    4.955396   5.063368   2.558052   0.000000
    15  H    5.356448   5.583794   3.750149   1.776999   0.000000
    16  H    4.962030   3.681151   4.280665   4.420413   3.923764
    17  H    5.701766   5.088532   4.974088   4.249804   3.083364
    18  H    5.113921   4.456195   5.289432   5.351161   4.389281
    19  H    4.455772   5.136440   5.258085   5.151612   3.986813
    20  H    5.109263   5.673262   4.922561   3.985030   2.479582
    21  H    3.690369   4.935541   4.204339   4.016344   3.142764
    22  H    1.093522   3.479305   3.221467   4.733259   4.982325
    23  H    1.093403   2.750943   2.926993   5.184904   5.903773
    24  H    1.096043   2.766679   4.008802   5.951475   6.184436
    25  H    2.770017   1.096185   3.980770   6.047129   6.391768
    26  H    2.755733   1.094912   2.884109   5.285196   6.109132
    27  H    3.480171   1.096478   3.155089   4.920130   5.388644
    28  S    6.230811   5.058712   3.487075   2.916331   3.947939
    29  O    6.108705   4.394620   3.745294   3.996030   4.857401
    30  O    5.756380   5.051923   2.779385   2.388338   3.951812
    31  C    8.014720   6.797427   5.200122   4.179123   5.061741
    32  H    8.496809   7.112542   5.846645   4.775101   5.333843
    33  H    8.374205   7.032578   5.527939   4.892305   5.978152
    34  H    8.337287   7.413878   5.456393   4.004632   4.877793
                   16         17         18         19         20
    16  H    0.000000
    17  H    1.774462   0.000000
    18  H    1.783500   1.776965   0.000000
    19  H    3.769009   3.086513   2.546247   0.000000
    20  H    3.748944   2.521656   3.102394   1.775637   0.000000
    21  H    4.329324   3.755719   3.765936   1.777952   1.782780
    22  H    5.286778   5.691148   5.250055   4.071604   4.622086
    23  H    5.679936   6.528282   6.057230   5.503751   6.005055
    24  H    5.295706   6.104130   5.205821   4.580593   5.571476
    25  H    4.106513   5.534767   4.560076   5.264242   6.109288
    26  H    4.598401   5.997234   5.511995   6.071242   6.493060
    27  H    2.987936   4.582210   4.092065   5.269418   5.635872
    28  S    4.229267   4.776968   5.848499   6.817845   5.902605
    29  O    3.811960   4.852954   5.573309   6.958699   6.371517
    30  O    5.048322   5.529482   6.509381   6.992510   6.070487
    31  C    5.603987   5.929316   7.215677   8.295128   7.183691
    32  H    5.429487   5.705226   7.023496   8.350900   7.257234
    33  H    6.291941   6.824953   7.979998   9.112009   8.097012
    34  H    6.161433   6.220527   7.647821   8.456618   7.174234
                   21         22         23         24         25
    21  H    0.000000
    22  H    3.005430   0.000000
    23  H    4.587977   1.776869   0.000000
    24  H    4.155390   1.778078   1.781133   0.000000
    25  H    5.315979   3.777736   3.104913   2.563146   0.000000
    26  H    5.642286   3.758154   2.531963   3.111312   1.780126
    27  H    5.238536   4.327046   3.755145   3.775580   1.784168
    28  S    6.237582   6.497218   6.301642   7.097744   6.079659
    29  O    6.640555   6.601435   6.177617   6.824228   5.319461
    30  O    6.057027   5.929606   5.645089   6.741213   6.141899
    31  C    7.755645   8.240461   8.052208   8.891821   7.796007
    32  H    8.030562   8.748258   8.637845   9.301957   8.038549
    33  H    8.527903   8.688480   8.284907   9.247002   8.032412
    34  H    7.775630   8.430030   8.375233   9.276401   8.444773
                   26         27         28         29         30
    26  H    0.000000
    27  H    1.776440   0.000000
    28  S    5.136461   4.410401   0.000000
    29  O    4.478440   3.555571   1.477387   0.000000
    30  O    4.917163   4.694826   1.486648   2.562577   0.000000
    31  C    6.831910   6.073711   1.794474   2.652359   2.673063
    32  H    7.270449   6.275082   2.372601   2.864432   3.572044
    33  H    6.915486   6.320346   2.334524   2.841006   2.943885
    34  H    7.448024   6.784000   2.376948   3.562177   2.826104
                   31         32         33         34
    31  C    0.000000
    32  H    1.090443   0.000000
    33  H    1.093286   1.797349   0.000000
    34  H    1.091279   1.811893   1.806125   0.000000
 Stoichiometry    C10H18NO3S2(2)
 Framework group  C1[X(C10H18NO3S2)]
 Deg. of freedom    96
 Full point group                 C1      NOp   1
 Largest Abelian subgroup         C1      NOp   1
 Largest concise Abelian subgroup C1      NOp   1
                         Standard orientation:                         
 ---------------------------------------------------------------------
 Center     Atomic      Atomic             Coordinates (Angstroms)
 Number     Number       Type             X           Y           Z
 ---------------------------------------------------------------------
      1          8           0       -3.763353    0.199183    0.876846
      2          7           0       -2.606012    0.028349    0.390660
      3          6           0       -2.157770   -1.273553   -0.149570
      4          6           0       -0.882043   -0.852945   -0.818827
      5          6           0       -0.609033    0.446920   -0.657765
      6          6           0        0.598814    1.125741   -1.202458
      7         16           0        1.938833    1.445011    0.026287
      8          6           0       -1.694130    1.161065    0.119695
      9          6           0       -1.232570    1.763812    1.450381
     10          6           0       -2.433513    2.211588   -0.713074
     11          6           0       -3.212384   -1.817042   -1.117268
     12          6           0       -1.907292   -2.263591    0.993188
     13          1           0       -0.242213   -1.561052   -1.338723
     14          1           0        1.054666    0.539999   -2.007541
     15          1           0        0.379368    2.128901   -1.586725
     16          1           0       -0.658810    1.038426    2.036667
     17          1           0       -0.605565    2.646730    1.288843
     18          1           0       -2.115928    2.066780    2.023735
     19          1           0       -3.324299    2.535014   -0.168061
     20          1           0       -1.798369    3.087334   -0.888733
     21          1           0       -2.744766    1.800110   -1.679739
     22          1           0       -3.375291   -1.126071   -1.949021
     23          1           0       -2.895856   -2.782629   -1.520977
     24          1           0       -4.159782   -1.949647   -0.582325
     25          1           0       -2.832901   -2.412762    1.561184
     26          1           0       -1.580397   -3.230008    0.595684
     27          1           0       -1.130801   -1.889224    1.670812
     28         16           0        2.760424   -0.528610    0.102778
     29          8           0        2.343648   -1.206824    1.347365
     30          8           0        2.507815   -1.179340   -1.209800
     31          6           0        4.511176   -0.157892    0.235350
     32          1           0        4.661575    0.460742    1.120640
     33          1           0        5.003140   -1.127323    0.351324
     34          1           0        4.827788    0.345061   -0.679901
 ---------------------------------------------------------------------
 Rotational constants (GHZ):           0.7799853           0.2769954           0.2422405
 Leave Link  202 at Mon Jun 17 21:30:45 2019, MaxMem=  8053063680 cpu:               0.0 elap:               0.1
 (Enter /data2/g16/g16/l301.exe)
 General basis read from cards:  (6D, 7F)
 Centers:      13     14     15     16     17     18     19     20     21     22
 Centers:      23     24     25     26     27     32     33     34
 6-31G
 S 1 1.00 0.000000000000
     Exponent=  4.0000000000D-01 Coefficients=  1.0000000000D+00
 P 1 1.00 0.000000000000
     Exponent=  7.5000000000D-01 Coefficients=  1.0000000000D+00
 ****
 Centers:       3      4      5      6      8      9     10     11     12     31
 6-31G
 S 1 1.00 0.000000000000
     Exponent=  8.7000000000D+00 Coefficients=  1.0000000000D+00
 P 1 1.00 0.000000000000
     Exponent=  5.0000000000D-02 Coefficients=  1.0000000000D+00
 D 1 1.00
     Exponent=  8.2000000000D-01 Coefficients=  1.0000000000D+00
 ****
 Centers:       2
 6-31G
 S 1 1.00 0.000000000000
     Exponent=  1.3700000000D+01 Coefficients=  1.0000000000D+00
 P 1 1.00 0.000000000000
     Exponent=  5.3000000000D-02 Coefficients=  1.0000000000D+00
 D 1 1.00 0.000000000000
     Exponent=  1.0150000000D+00 Coefficients=  1.0000000000D+00
 ****
 Centers:       1     29     30
 6-31G
 S 1 1.00
     Exponent=  1.6000000000D+01 Coefficients=  1.0000000000D+00
 P 1 1.00 0.000000000000
     Exponent=  6.5000000000D-02 Coefficients=  1.0000000000D+00
 D 1 1.00 0.000000000000
     Exponent=  1.1900000000D+00 Coefficients=  1.0000000000D+00
 D 1 1.00 0.000000000000
     Exponent=  1.8000000000D-01 Coefficients=  1.0000000000D+00
 ****
 Centers:       7     28
 6-31G
 S 1 1.00 0.000000000000
     Exponent=  7.5000000000D+00 Coefficients=  1.0000000000D+00
 P 1 1.00 0.000000000000
     Exponent=  4.1000000000D-02 Coefficients=  1.0000000000D+00
 D 1 1.00 0.000000000000
     Exponent=  4.7900000000D-01 Coefficients=  1.0000000000D+00
 ****
 Ernie: Thresh=  0.10000D-02 Tol=  0.10000D-05 Strict=F.
 There are   438 symmetry adapted cartesian basis functions of A   symmetry.
 There are   438 symmetry adapted basis functions of A   symmetry.
   438 basis functions,   722 primitive gaussians,   438 cartesian basis functions
    71 alpha electrons       70 beta electrons
       nuclear repulsion energy      1520.7177607006 Hartrees.
 IExCor= 1009 DFT=T Ex+Corr=PBE1PBE ExCW=0 ScaHFX=  0.250000
 ScaDFX=  0.750000  0.750000  1.000000  1.000000 ScalE2=  1.000000  1.000000
 IRadAn=      5 IRanWt=     -1 IRanGd=            0 ICorTp=0 IEmpDi=  4
 NAtoms=   34 NActive=   34 NUniq=   34 SFac= 1.00D+00 NAtFMM=   60 NAOKFM=F Big=F
 Integral buffers will be    131072 words long.
 Raffenetti 2 integral format.
 Two-electron integral symmetry is turned on.
 Leave Link  301 at Mon Jun 17 21:30:45 2019, MaxMem=  8053063680 cpu:               0.0 elap:               0.2
 (Enter /data2/g16/g16/l302.exe)
 NPDir=0 NMtPBC=     1 NCelOv=     1 NCel=       1 NClECP=     1 NCelD=      1
         NCelK=      1 NCelE2=     1 NClLst=     1 CellRange=     0.0.
 One-electron integrals computed using PRISM.
 One-electron integral symmetry used in STVInt
 NBasis=   438 RedAO= T EigKep=  6.44D-05  NBF=   438
 NBsUse=   438 1.00D-06 EigRej= -1.00D+00 NBFU=   438
 Precomputing XC quadrature grid using
 IXCGrd= 4 IRadAn=           5 IRanWt=          -1 IRanGd=           0 AccXCQ= 0.00D+00.
 Generated NRdTot=       0 NPtTot=           0 NUsed=           0 NTot=          32
 NSgBfM=   433   433   433   433   433 MxSgAt=    34 MxSgA2=    34.
 Leave Link  302 at Mon Jun 17 21:30:45 2019, MaxMem=  8053063680 cpu:               0.0 elap:               0.5
 (Enter /data2/g16/g16/l303.exe)
 DipDrv:  MaxL=1.
 Leave Link  303 at Mon Jun 17 21:30:46 2019, MaxMem=  8053063680 cpu:               0.0 elap:               0.1
 (Enter /data2/g16/g16/l401.exe)
 ExpMin= 4.10D-02 ExpMax= 2.19D+04 ExpMxC= 3.30D+03 IAcc=3 IRadAn=         5 AccDes= 0.00D+00
 Harris functional with IExCor= 1009 and IRadAn=       5 diagonalized for initial guess.
 HarFok:  IExCor= 1009 AccDes= 0.00D+00 IRadAn=         5 IDoV= 1 UseB2=F ITyADJ=14
 ICtDFT=  3500011 ScaDFX=  1.000000  1.000000  1.000000  1.000000
 FoFCou: FMM=F IPFlag=           0 FMFlag=      100000 FMFlg1=           0
         NFxFlg=           0 DoJE=T BraDBF=F KetDBF=T FulRan=T
         wScrn=  0.000000 ICntrl=       500 IOpCl=  0 I1Cent=   200000004 NGrid=           0
         NMat0=    1 NMatS0=      1 NMatT0=    0 NMatD0=    1 NMtDS0=    0 NMtDT0=    0
 Petite list used in FoFCou.
 Harris En= -1467.69842610760    
 JPrj=0 DoOrth=F DoCkMO=F.
 Initial guess <Sx>= 0.0000 <Sy>= 0.0000 <Sz>= 0.5000 <S**2>= 0.7500 S= 0.5000
 Leave Link  401 at Mon Jun 17 21:30:47 2019, MaxMem=  8053063680 cpu:               0.0 elap:               1.6
 (Enter /data2/g16/g16/l502.exe)
 Integral symmetry usage will be decided dynamically.
 UHF open shell SCF:
 Using DIIS extrapolation, IDIIS=  1040.
 NGot=  8053063680 LenX=  8052670277 LenY=  8052477992
 Requested convergence on RMS density matrix=1.00D-08 within 128 cycles.
 Requested convergence on MAX density matrix=1.00D-06.
 Requested convergence on             energy=1.00D-06.
 No special actions if energy rises.
 Fock matrices will be formed incrementally for  20 cycles.

 Cycle   1  Pass 1  IDiag  1:
 FoFJK:  IHMeth= 1 ICntrl=       0 DoSepK=F KAlg= 0 I1Cent=           0 FoldK=F
 IRaf= 840000000 NMat=       1 IRICut=       1 DoRegI=T DoRafI=F ISym2E= 0 IDoP0=0 IntGTp=1.
 FoFCou: FMM=F IPFlag=           0 FMFlag=      100000 FMFlg1=           0
         NFxFlg=           0 DoJE=F BraDBF=F KetDBF=F FulRan=T
         wScrn=  0.000000 ICntrl=         0 IOpCl=  1 I1Cent=           0 NGrid=           0
         NMat0=    1 NMatS0=      1 NMatT0=    0 NMatD0=    1 NMtDS0=    0 NMtDT0=    0
 Symmetry not used in FoFCou.
 E= -1466.93537981413    
 DIIS: error= 2.58D-02 at cycle   1 NSaved=   1.
 NSaved= 1 IEnMin= 1 EnMin= -1466.93537981413     IErMin= 1 ErrMin= 2.58D-02
 ErrMax= 2.58D-02  0.00D+00 EMaxC= 1.00D-01 BMatC= 2.97D+00 BMatP= 2.97D+00
 IDIUse=3 WtCom= 7.42D-01 WtEn= 2.58D-01
 Coeff-Com:  0.100D+01
 Coeff-En:   0.100D+01
 Coeff:      0.100D+01
 Gap=     0.225 Goal=   None    Shift=    0.000
 Gap=     0.364 Goal=   None    Shift=    0.000
 GapD=    0.225 DampG=1.000 DampE=0.500 DampFc=0.5000 IDamp=-1.
 Damping current iteration by 5.00D-01
 RMSDP=4.75D-03 MaxDP=4.12D-01              OVMax= 2.98D-01

 Cycle   2  Pass 1  IDiag  1:
 RMSU=  2.37D-03    CP:  9.92D-01
 E= -1467.06128296465     Delta-E=       -0.125903150519 Rises=F Damp=T
 DIIS: error= 1.02D-02 at cycle   2 NSaved=   2.
 NSaved= 2 IEnMin= 2 EnMin= -1467.06128296465     IErMin= 2 ErrMin= 1.02D-02
 ErrMax= 1.02D-02  0.00D+00 EMaxC= 1.00D-01 BMatC= 5.25D-01 BMatP= 2.97D+00
 IDIUse=3 WtCom= 8.98D-01 WtEn= 1.02D-01
 Coeff-Com:  0.227D+00 0.773D+00
 Coeff-En:   0.396D+00 0.604D+00
 Coeff:      0.244D+00 0.756D+00
 Gap=     0.128 Goal=   None    Shift=    0.000
 Gap=     0.185 Goal=   None    Shift=    0.000
 RMSDP=1.67D-03 MaxDP=1.19D-01 DE=-1.26D-01 OVMax= 2.85D-01

 Cycle   3  Pass 1  IDiag  1:
 RMSU=  1.39D-03    CP:  9.82D-01  6.10D-01
 E= -1467.46572058632     Delta-E=       -0.404437621674 Rises=F Damp=F
 DIIS: error= 7.50D-03 at cycle   3 NSaved=   3.
 NSaved= 3 IEnMin= 3 EnMin= -1467.46572058632     IErMin= 3 ErrMin= 7.50D-03
 ErrMax= 7.50D-03  0.00D+00 EMaxC= 1.00D-01 BMatC= 3.57D-01 BMatP= 5.25D-01
 IDIUse=3 WtCom= 9.25D-01 WtEn= 7.50D-02
 Coeff-Com:  0.532D-01 0.446D+00 0.501D+00
 Coeff-En:   0.000D+00 0.000D+00 0.100D+01
 Coeff:      0.492D-01 0.412D+00 0.538D+00
 Gap=     0.145 Goal=   None    Shift=    0.000
 Gap=     0.223 Goal=   None    Shift=    0.000
 RMSDP=9.21D-04 MaxDP=6.34D-02 DE=-4.04D-01 OVMax= 1.08D-01

 Cycle   4  Pass 1  IDiag  1:
 RMSU=  6.15D-04    CP:  9.87D-01  7.31D-01  5.53D-01
 E= -1467.53916087004     Delta-E=       -0.073440283715 Rises=F Damp=F
 DIIS: error= 2.27D-03 at cycle   4 NSaved=   4.
 NSaved= 4 IEnMin= 4 EnMin= -1467.53916087004     IErMin= 4 ErrMin= 2.27D-03
 ErrMax= 2.27D-03  0.00D+00 EMaxC= 1.00D-01 BMatC= 3.95D-02 BMatP= 3.57D-01
 IDIUse=3 WtCom= 9.77D-01 WtEn= 2.27D-02
 Coeff-Com: -0.139D-01 0.708D-01 0.270D+00 0.673D+00
 Coeff-En:   0.000D+00 0.000D+00 0.765D-01 0.923D+00
 Coeff:     -0.136D-01 0.692D-01 0.266D+00 0.679D+00
 Gap=     0.144 Goal=   None    Shift=    0.000
 Gap=     0.202 Goal=   None    Shift=    0.000
 RMSDP=3.04D-04 MaxDP=1.66D-02 DE=-7.34D-02 OVMax= 3.04D-02

 Cycle   5  Pass 1  IDiag  1:
 RMSU=  2.03D-04    CP:  9.86D-01  7.23D-01  6.55D-01  7.15D-01
 E= -1467.54738175986     Delta-E=       -0.008220889826 Rises=F Damp=F
 DIIS: error= 8.68D-04 at cycle   5 NSaved=   5.
 NSaved= 5 IEnMin= 5 EnMin= -1467.54738175986     IErMin= 5 ErrMin= 8.68D-04
 ErrMax= 8.68D-04  0.00D+00 EMaxC= 1.00D-01 BMatC= 3.97D-03 BMatP= 3.95D-02
 IDIUse=3 WtCom= 9.91D-01 WtEn= 8.68D-03
 Coeff-Com: -0.986D-02 0.177D-01 0.122D+00 0.378D+00 0.492D+00
 Coeff-En:   0.000D+00 0.000D+00 0.000D+00 0.000D+00 0.100D+01
 Coeff:     -0.977D-02 0.176D-01 0.121D+00 0.375D+00 0.496D+00
 Gap=     0.145 Goal=   None    Shift=    0.000
 Gap=     0.205 Goal=   None    Shift=    0.000
 RMSDP=1.10D-04 MaxDP=5.34D-03 DE=-8.22D-03 OVMax= 1.26D-02

 Cycle   6  Pass 1  IDiag  1:
 RMSU=  6.96D-05    CP:  9.85D-01  7.25D-01  6.52D-01  7.72D-01  6.24D-01
 E= -1467.54824508279     Delta-E=       -0.000863322933 Rises=F Damp=F
 DIIS: error= 2.40D-04 at cycle   6 NSaved=   6.
 NSaved= 6 IEnMin= 6 EnMin= -1467.54824508279     IErMin= 6 ErrMin= 2.40D-04
 ErrMax= 2.40D-04  0.00D+00 EMaxC= 1.00D-01 BMatC= 4.05D-04 BMatP= 3.97D-03
 IDIUse=3 WtCom= 9.98D-01 WtEn= 2.40D-03
 Coeff-Com: -0.331D-02 0.208D-02 0.341D-01 0.119D+00 0.273D+00 0.576D+00
 Coeff-En:   0.000D+00 0.000D+00 0.000D+00 0.000D+00 0.438D-01 0.956D+00
 Coeff:     -0.331D-02 0.207D-02 0.340D-01 0.118D+00 0.272D+00 0.577D+00
 Gap=     0.147 Goal=   None    Shift=    0.000
 Gap=     0.206 Goal=   None    Shift=    0.000
 RMSDP=3.59D-05 MaxDP=2.49D-03 DE=-8.63D-04 OVMax= 5.19D-03

 Cycle   7  Pass 1  IDiag  1:
 RMSU=  2.54D-05    CP:  9.85D-01  7.22D-01  6.57D-01  7.74D-01  6.68D-01
                    CP:  6.98D-01
 E= -1467.54833902373     Delta-E=       -0.000093940932 Rises=F Damp=F
 DIIS: error= 1.19D-04 at cycle   7 NSaved=   7.
 NSaved= 7 IEnMin= 7 EnMin= -1467.54833902373     IErMin= 7 ErrMin= 1.19D-04
 ErrMax= 1.19D-04  0.00D+00 EMaxC= 1.00D-01 BMatC= 6.68D-05 BMatP= 4.05D-04
 IDIUse=3 WtCom= 9.99D-01 WtEn= 1.19D-03
 Coeff-Com: -0.756D-04-0.236D-02-0.266D-02 0.809D-04 0.601D-01 0.329D+00
 Coeff-Com:  0.616D+00
 Coeff-En:   0.000D+00 0.000D+00 0.000D+00 0.000D+00 0.000D+00 0.702D-01
 Coeff-En:   0.930D+00
 Coeff:     -0.755D-04-0.236D-02-0.266D-02 0.808D-04 0.600D-01 0.329D+00
 Coeff:      0.616D+00
 Gap=     0.147 Goal=   None    Shift=    0.000
 Gap=     0.206 Goal=   None    Shift=    0.000
 RMSDP=1.50D-05 MaxDP=9.82D-04 DE=-9.39D-05 OVMax= 1.16D-03

 Cycle   8  Pass 1  IDiag  1:
 RMSU=  1.05D-05    CP:  9.85D-01  7.22D-01  6.57D-01  7.73D-01  7.01D-01
                    CP:  7.92D-01  7.96D-01
 E= -1467.54835522832     Delta-E=       -0.000016204590 Rises=F Damp=F
 DIIS: error= 3.33D-05 at cycle   8 NSaved=   8.
 NSaved= 8 IEnMin= 8 EnMin= -1467.54835522832     IErMin= 8 ErrMin= 3.33D-05
 ErrMax= 3.33D-05  0.00D+00 EMaxC= 1.00D-01 BMatC= 5.24D-06 BMatP= 6.68D-05
 IDIUse=1 WtCom= 1.00D+00 WtEn= 0.00D+00
 Coeff-Com:  0.463D-03-0.127D-02-0.525D-02-0.150D-01-0.149D-01 0.709D-01
 Coeff-Com:  0.229D+00 0.736D+00
 Coeff:      0.463D-03-0.127D-02-0.525D-02-0.150D-01-0.149D-01 0.709D-01
 Coeff:      0.229D+00 0.736D+00
 Gap=     0.147 Goal=   None    Shift=    0.000
 Gap=     0.206 Goal=   None    Shift=    0.000
 RMSDP=5.19D-06 MaxDP=6.25D-04 DE=-1.62D-05 OVMax= 1.19D-03

 Cycle   9  Pass 1  IDiag  1:
 RMSU=  4.31D-06    CP:  9.85D-01  7.22D-01  6.57D-01  7.75D-01  7.00D-01
                    CP:  8.22D-01  8.39D-01  9.08D-01
 E= -1467.54835670290     Delta-E=       -0.000001474585 Rises=F Damp=F
 DIIS: error= 2.16D-05 at cycle   9 NSaved=   9.
 NSaved= 9 IEnMin= 9 EnMin= -1467.54835670290     IErMin= 9 ErrMin= 2.16D-05
 ErrMax= 2.16D-05  0.00D+00 EMaxC= 1.00D-01 BMatC= 3.31D-06 BMatP= 5.24D-06
 IDIUse=1 WtCom= 1.00D+00 WtEn= 0.00D+00
 Coeff-Com:  0.371D-03-0.443D-03-0.291D-02-0.102D-01-0.258D-01-0.253D-01
 Coeff-Com: -0.143D-02 0.491D+00 0.575D+00
 Coeff:      0.371D-03-0.443D-03-0.291D-02-0.102D-01-0.258D-01-0.253D-01
 Coeff:     -0.143D-02 0.491D+00 0.575D+00
 Gap=     0.147 Goal=   None    Shift=    0.000
 Gap=     0.206 Goal=   None    Shift=    0.000
 RMSDP=3.33D-06 MaxDP=2.37D-04 DE=-1.47D-06 OVMax= 2.95D-04

 Cycle  10  Pass 1  IDiag  1:
 RMSU=  2.33D-06    CP:  9.85D-01  7.22D-01  6.57D-01  7.75D-01  7.04D-01
                    CP:  8.39D-01  8.78D-01  1.04D+00  8.47D-01
 E= -1467.54835744923     Delta-E=       -0.000000746329 Rises=F Damp=F
 DIIS: error= 9.34D-06 at cycle  10 NSaved=  10.
 NSaved=10 IEnMin=10 EnMin= -1467.54835744923     IErMin=10 ErrMin= 9.34D-06
 ErrMax= 9.34D-06  0.00D+00 EMaxC= 1.00D-01 BMatC= 5.58D-07 BMatP= 3.31D-06
 IDIUse=1 WtCom= 1.00D+00 WtEn= 0.00D+00
 Coeff-Com:  0.118D-03 0.615D-04-0.165D-03-0.182D-02-0.123D-01-0.323D-01
 Coeff-Com: -0.703D-01 0.110D+00 0.339D+00 0.667D+00
 Coeff:      0.118D-03 0.615D-04-0.165D-03-0.182D-02-0.123D-01-0.323D-01
 Coeff:     -0.703D-01 0.110D+00 0.339D+00 0.667D+00
 Gap=     0.147 Goal=   None    Shift=    0.000
 Gap=     0.206 Goal=   None    Shift=    0.000
 RMSDP=1.64D-06 MaxDP=1.30D-04 DE=-7.46D-07 OVMax= 2.75D-04

 Cycle  11  Pass 1  IDiag  1:
 RMSU=  9.65D-07    CP:  9.85D-01  7.22D-01  6.57D-01  7.75D-01  7.05D-01
                    CP:  8.46D-01  8.87D-01  1.14D+00  9.79D-01  8.76D-01
 E= -1467.54835761182     Delta-E=       -0.000000162586 Rises=F Damp=F
 DIIS: error= 5.55D-06 at cycle  11 NSaved=  11.
 NSaved=11 IEnMin=11 EnMin= -1467.54835761182     IErMin=11 ErrMin= 5.55D-06
 ErrMax= 5.55D-06  0.00D+00 EMaxC= 1.00D-01 BMatC= 1.04D-07 BMatP= 5.58D-07
 IDIUse=1 WtCom= 1.00D+00 WtEn= 0.00D+00
 Coeff-Com:  0.378D-05 0.832D-04 0.436D-03 0.846D-03-0.222D-02-0.108D-01
 Coeff-Com: -0.370D-01-0.198D-01 0.662D-01 0.358D+00 0.644D+00
 Coeff:      0.378D-05 0.832D-04 0.436D-03 0.846D-03-0.222D-02-0.108D-01
 Coeff:     -0.370D-01-0.198D-01 0.662D-01 0.358D+00 0.644D+00
 Gap=     0.147 Goal=   None    Shift=    0.000
 Gap=     0.206 Goal=   None    Shift=    0.000
 RMSDP=6.22D-07 MaxDP=6.40D-05 DE=-1.63D-07 OVMax= 1.28D-04

 Cycle  12  Pass 1  IDiag  1:
 RMSU=  4.37D-07    CP:  9.85D-01  7.22D-01  6.57D-01  7.75D-01  7.04D-01
                    CP:  8.47D-01  8.84D-01  1.15D+00  1.03D+00  9.88D-01
                    CP:  8.27D-01
 E= -1467.54835763819     Delta-E=       -0.000000026375 Rises=F Damp=F
 DIIS: error= 3.39D-06 at cycle  12 NSaved=  12.
 NSaved=12 IEnMin=12 EnMin= -1467.54835763819     IErMin=12 ErrMin= 3.39D-06
 ErrMax= 3.39D-06  0.00D+00 EMaxC= 1.00D-01 BMatC= 2.86D-08 BMatP= 1.04D-07
 IDIUse=1 WtCom= 1.00D+00 WtEn= 0.00D+00
 Coeff-Com: -0.146D-04 0.312D-04 0.304D-03 0.835D-03 0.619D-03-0.137D-02
 Coeff-Com: -0.126D-01-0.343D-01-0.273D-01 0.104D+00 0.405D+00 0.565D+00
 Coeff:     -0.146D-04 0.312D-04 0.304D-03 0.835D-03 0.619D-03-0.137D-02
 Coeff:     -0.126D-01-0.343D-01-0.273D-01 0.104D+00 0.405D+00 0.565D+00
 Gap=     0.147 Goal=   None    Shift=    0.000
 Gap=     0.206 Goal=   None    Shift=    0.000
 RMSDP=3.36D-07 MaxDP=2.36D-05 DE=-2.64D-08 OVMax= 2.94D-05

 Cycle  13  Pass 1  IDiag  1:
 RMSU=  2.08D-07    CP:  9.85D-01  7.22D-01  6.57D-01  7.75D-01  7.04D-01
                    CP:  8.49D-01  8.85D-01  1.15D+00  1.05D+00  1.06D+00
                    CP:  9.52D-01  8.39D-01
 E= -1467.54835764456     Delta-E=       -0.000000006367 Rises=F Damp=F
 DIIS: error= 1.05D-06 at cycle  13 NSaved=  13.
 NSaved=13 IEnMin=13 EnMin= -1467.54835764456     IErMin=13 ErrMin= 1.05D-06
 ErrMax= 1.05D-06  0.00D+00 EMaxC= 1.00D-01 BMatC= 4.07D-09 BMatP= 2.86D-08
 IDIUse=1 WtCom= 1.00D+00 WtEn= 0.00D+00
 Coeff-Com: -0.524D-05-0.736D-05 0.572D-04 0.217D-03 0.895D-03 0.272D-02
 Coeff-Com:  0.353D-02-0.964D-02-0.326D-01-0.355D-01 0.601D-01 0.304D+00
 Coeff-Com:  0.706D+00
 Coeff:     -0.524D-05-0.736D-05 0.572D-04 0.217D-03 0.895D-03 0.272D-02
 Coeff:      0.353D-02-0.964D-02-0.326D-01-0.355D-01 0.601D-01 0.304D+00
 Coeff:      0.706D+00
 Gap=     0.147 Goal=   None    Shift=    0.000
 Gap=     0.206 Goal=   None    Shift=    0.000
 RMSDP=1.29D-07 MaxDP=1.34D-05 DE=-6.37D-09 OVMax= 2.20D-05

 Cycle  14  Pass 1  IDiag  1:
 RMSU=  1.07D-07    CP:  9.85D-01  7.22D-01  6.57D-01  7.75D-01  7.04D-01
                    CP:  8.49D-01  8.85D-01  1.16D+00  1.05D+00  1.07D+00
                    CP:  9.84D-01  8.59D-01  8.26D-01
 E= -1467.54835764570     Delta-E=       -0.000000001145 Rises=F Damp=F
 DIIS: error= 5.55D-07 at cycle  14 NSaved=  14.
 NSaved=14 IEnMin=14 EnMin= -1467.54835764570     IErMin=14 ErrMin= 5.55D-07
 ErrMax= 5.55D-07  0.00D+00 EMaxC= 1.00D-01 BMatC= 8.76D-10 BMatP= 4.07D-09
 IDIUse=1 WtCom= 1.00D+00 WtEn= 0.00D+00
 Coeff-Com:  0.196D-06-0.113D-04-0.281D-04-0.446D-04 0.334D-03 0.163D-02
 Coeff-Com:  0.400D-02 0.171D-02-0.119D-01-0.392D-01-0.523D-01 0.214D-01
 Coeff-Com:  0.375D+00 0.700D+00
 Coeff:      0.196D-06-0.113D-04-0.281D-04-0.446D-04 0.334D-03 0.163D-02
 Coeff:      0.400D-02 0.171D-02-0.119D-01-0.392D-01-0.523D-01 0.214D-01
 Coeff:      0.375D+00 0.700D+00
 Gap=     0.147 Goal=   None    Shift=    0.000
 Gap=     0.206 Goal=   None    Shift=    0.000
 RMSDP=7.28D-08 MaxDP=4.79D-06 DE=-1.14D-09 OVMax= 6.09D-06

 Cycle  15  Pass 1  IDiag  1:
 RMSU=  3.49D-08    CP:  9.85D-01  7.22D-01  6.57D-01  7.75D-01  7.04D-01
                    CP:  8.49D-01  8.85D-01  1.16D+00  1.05D+00  1.08D+00
                    CP:  1.01D+00  9.47D-01  9.48D-01  8.12D-01
 E= -1467.54835764587     Delta-E=       -0.000000000163 Rises=F Damp=F
 DIIS: error= 1.36D-07 at cycle  15 NSaved=  15.
 NSaved=15 IEnMin=15 EnMin= -1467.54835764587     IErMin=15 ErrMin= 1.36D-07
 ErrMax= 1.36D-07  0.00D+00 EMaxC= 1.00D-01 BMatC= 5.99D-11 BMatP= 8.76D-10
 IDIUse=1 WtCom= 1.00D+00 WtEn= 0.00D+00
 Coeff-Com:  0.828D-06-0.239D-05-0.197D-04-0.498D-04-0.132D-04 0.207D-03
 Coeff-Com:  0.867D-03 0.215D-02 0.470D-03-0.796D-02-0.262D-01-0.405D-01
 Coeff-Com:  0.402D-01 0.224D+00 0.807D+00
 Coeff:      0.828D-06-0.239D-05-0.197D-04-0.498D-04-0.132D-04 0.207D-03
 Coeff:      0.867D-03 0.215D-02 0.470D-03-0.796D-02-0.262D-01-0.405D-01
 Coeff:      0.402D-01 0.224D+00 0.807D+00
 Gap=     0.147 Goal=   None    Shift=    0.000
 Gap=     0.206 Goal=   None    Shift=    0.000
 RMSDP=2.09D-08 MaxDP=1.24D-06 DE=-1.63D-10 OVMax= 2.18D-06

 Cycle  16  Pass 1  IDiag  1:
 RMSU=  1.44D-08    CP:  9.85D-01  7.22D-01  6.57D-01  7.75D-01  7.04D-01
                    CP:  8.49D-01  8.85D-01  1.16D+00  1.05D+00  1.08D+00
                    CP:  1.01D+00  9.48D-01  9.95D-01  8.93D-01  9.38D-01
 E= -1467.54835764599     Delta-E=       -0.000000000127 Rises=F Damp=F
 DIIS: error= 4.86D-08 at cycle  16 NSaved=  16.
 NSaved=16 IEnMin=16 EnMin= -1467.54835764599     IErMin=16 ErrMin= 4.86D-08
 ErrMax= 4.86D-08  0.00D+00 EMaxC= 1.00D-01 BMatC= 1.19D-11 BMatP= 5.99D-11
 IDIUse=1 WtCom= 1.00D+00 WtEn= 0.00D+00
 Coeff-Com:  0.156D-06 0.983D-06-0.359D-05-0.113D-04-0.552D-04-0.159D-03
 Coeff-Com: -0.268D-03 0.595D-03 0.185D-02 0.301D-02-0.241D-02-0.196D-01
 Coeff-Com: -0.378D-01-0.235D-01 0.318D+00 0.760D+00
 Coeff:      0.156D-06 0.983D-06-0.359D-05-0.113D-04-0.552D-04-0.159D-03
 Coeff:     -0.268D-03 0.595D-03 0.185D-02 0.301D-02-0.241D-02-0.196D-01
 Coeff:     -0.378D-01-0.235D-01 0.318D+00 0.760D+00
 Gap=     0.147 Goal=   None    Shift=    0.000
 Gap=     0.206 Goal=   None    Shift=    0.000
 RMSDP=8.91D-09 MaxDP=4.92D-07 DE=-1.27D-10 OVMax= 1.31D-06

 SCF Done:  E(UPBE1PBE) =  -1467.54835765     A.U. after   16 cycles
            NFock= 16  Conv=0.89D-08     -V/T= 2.0053
 <Sx>= 0.0000 <Sy>= 0.0000 <Sz>= 0.5000 <S**2>= 0.7550 S= 0.5025
 <L.S>=  0.00000000000    
 KE= 1.459872760106D+03 PE=-6.496817978729D+03 EE= 2.048679100276D+03
 Annihilation of the first spin contaminant:
 S**2 before annihilation     0.7550,   after     0.7500
 Leave Link  502 at Mon Jun 17 21:33:25 2019, MaxMem=  8053063680 cpu:               0.0 elap:             158.0
 (Enter /data2/g16/g16/l601.exe)
 Copying SCF densities to generalized density rwf, IOpCl= 1 IROHF=0.

 **********************************************************************

            Population analysis using the SCF Density.

 **********************************************************************

 Orbital symmetries:
 Alpha Orbitals:
       Occupied  (A) (A) (A) (A) (A) (A) (A) (A) (A) (A) (A) (A)
                 (A) (A) (A) (A) (A) (A) (A) (A) (A) (A) (A) (A)
                 (A) (A) (A) (A) (A) (A) (A) (A) (A) (A) (A) (A)
                 (A) (A) (A) (A) (A) (A) (A) (A) (A) (A) (A) (A)
                 (A) (A) (A) (A) (A) (A) (A) (A) (A) (A) (A) (A)
                 (A) (A) (A) (A) (A) (A) (A) (A) (A) (A) (A)
       Virtual   (A) (A) (A) (A) (A) (A) (A) (A) (A) (A) (A) (A)
                 (A) (A) (A) (A) (A) (A) (A) (A) (A) (A) (A) (A)
                 (A) (A) (A) (A) (A) (A) (A) (A) (A) (A) (A) (A)
                 (A) (A) (A) (A) (A) (A) (A) (A) (A) (A) (A) (A)
                 (A) (A) (A) (A) (A) (A) (A) (A) (A) (A) (A) (A)
                 (A) (A) (A) (A) (A) (A) (A) (A) (A) (A) (A) (A)
                 (A) (A) (A) (A) (A) (A) (A) (A) (A) (A) (A) (A)
                 (A) (A) (A) (A) (A) (A) (A) (A) (A) (A) (A) (A)
                 (A) (A) (A) (A) (A) (A) (A) (A) (A) (A) (A) (A)
                 (A) (A) (A) (A) (A) (A) (A) (A) (A) (A) (A) (A)
                 (A) (A) (A) (A) (A) (A) (A) (A) (A) (A) (A) (A)
                 (A) (A) (A) (A) (A) (A) (A) (A) (A) (A) (A) (A)
                 (A) (A) (A) (A) (A) (A) (A) (A) (A) (A) (A) (A)
                 (A) (A) (A) (A) (A) (A) (A) (A) (A) (A) (A) (A)
                 (A) (A) (A) (A) (A) (A) (A) (A) (A) (A) (A) (A)
                 (A) (A) (A) (A) (A) (A) (A) (A) (A) (A) (A) (A)
                 (A) (A) (A) (A) (A) (A) (A) (A) (A) (A) (A) (A)
                 (A) (A) (A) (A) (A) (A) (A) (A) (A) (A) (A) (A)
                 (A) (A) (A) (A) (A) (A) (A) (A) (A) (A) (A) (A)
                 (A) (A) (A) (A) (A) (A) (A) (A) (A) (A) (A) (A)
                 (A) (A) (A) (A) (A) (A) (A) (A) (A) (A) (A) (A)
                 (A) (A) (A) (A) (A) (A) (A) (A) (A) (A) (A) (A)
                 (A) (A) (A) (A) (A) (A) (A) (A) (A) (A) (A) (A)
                 (A) (A) (A) (A) (A) (A) (A) (A) (A) (A) (A) (A)
                 (A) (A) (A) (A) (A) (A) (A) (A) (A) (A) (A) (A)
                 (A) (A) (A) (A) (A) (A) (A) (A) (A) (A) (A) (A)
                 (A) (A) (A) (A) (A) (A) (A) (A) (A) (A) (A) (A)
                 (A) (A) (A) (A) (A) (A) (A) (A) (A) (A) (A) (A)
                 (A) (A) (A) (A) (A) (A) (A) (A) (A) (A) (A) (A)
                 (A) (A) (A) (A) (A) (A) (A) (A) (A) (A) (A) (A)
                 (A) (A) (A) (A) (A) (A) (A)
 Beta  Orbitals:
       Occupied  (A) (A) (A) (A) (A) (A) (A) (A) (A) (A) (A) (A)
                 (A) (A) (A) (A) (A) (A) (A) (A) (A) (A) (A) (A)
                 (A) (A) (A) (A) (A) (A) (A) (A) (A) (A) (A) (A)
                 (A) (A) (A) (A) (A) (A) (A) (A) (A) (A) (A) (A)
                 (A) (A) (A) (A) (A) (A) (A) (A) (A) (A) (A) (A)
                 (A) (A) (A) (A) (A) (A) (A) (A) (A) (A)
       Virtual   (A) (A) (A) (A) (A) (A) (A) (A) (A) (A) (A) (A)
                 (A) (A) (A) (A) (A) (A) (A) (A) (A) (A) (A) (A)
                 (A) (A) (A) (A) (A) (A) (A) (A) (A) (A) (A) (A)
                 (A) (A) (A) (A) (A) (A) (A) (A) (A) (A) (A) (A)
                 (A) (A) (A) (A) (A) (A) (A) (A) (A) (A) (A) (A)
                 (A) (A) (A) (A) (A) (A) (A) (A) (A) (A) (A) (A)
                 (A) (A) (A) (A) (A) (A) (A) (A) (A) (A) (A) (A)
                 (A) (A) (A) (A) (A) (A) (A) (A) (A) (A) (A) (A)
                 (A) (A) (A) (A) (A) (A) (A) (A) (A) (A) (A) (A)
                 (A) (A) (A) (A) (A) (A) (A) (A) (A) (A) (A) (A)
                 (A) (A) (A) (A) (A) (A) (A) (A) (A) (A) (A) (A)
                 (A) (A) (A) (A) (A) (A) (A) (A) (A) (A) (A) (A)
                 (A) (A) (A) (A) (A) (A) (A) (A) (A) (A) (A) (A)
                 (A) (A) (A) (A) (A) (A) (A) (A) (A) (A) (A) (A)
                 (A) (A) (A) (A) (A) (A) (A) (A) (A) (A) (A) (A)
                 (A) (A) (A) (A) (A) (A) (A) (A) (A) (A) (A) (A)
                 (A) (A) (A) (A) (A) (A) (A) (A) (A) (A) (A) (A)
                 (A) (A) (A) (A) (A) (A) (A) (A) (A) (A) (A) (A)
                 (A) (A) (A) (A) (A) (A) (A) (A) (A) (A) (A) (A)
                 (A) (A) (A) (A) (A) (A) (A) (A) (A) (A) (A) (A)
                 (A) (A) (A) (A) (A) (A) (A) (A) (A) (A) (A) (A)
                 (A) (A) (A) (A) (A) (A) (A) (A) (A) (A) (A) (A)
                 (A) (A) (A) (A) (A) (A) (A) (A) (A) (A) (A) (A)
                 (A) (A) (A) (A) (A) (A) (A) (A) (A) (A) (A) (A)
                 (A) (A) (A) (A) (A) (A) (A) (A) (A) (A) (A) (A)
                 (A) (A) (A) (A) (A) (A) (A) (A) (A) (A) (A) (A)
                 (A) (A) (A) (A) (A) (A) (A) (A) (A) (A) (A) (A)
                 (A) (A) (A) (A) (A) (A) (A) (A) (A) (A) (A) (A)
                 (A) (A) (A) (A) (A) (A) (A) (A) (A) (A) (A) (A)
                 (A) (A) (A) (A) (A) (A) (A) (A) (A) (A) (A) (A)
                 (A) (A) (A) (A) (A) (A) (A) (A)
 The electronic state is 2-A.
 Alpha  occ. eigenvalues --  -89.28824 -89.08215 -19.24729 -19.24262 -19.22634
 Alpha  occ. eigenvalues --  -14.48516 -10.29838 -10.29718 -10.29150 -10.28744
 Alpha  occ. eigenvalues --  -10.26178 -10.24913 -10.23172 -10.22748 -10.22645
 Alpha  occ. eigenvalues --  -10.22470  -8.22138  -8.04458  -6.15860  -6.15819
 Alpha  occ. eigenvalues --   -6.15703  -5.98300  -5.97919  -5.97199  -1.14664
 Alpha  occ. eigenvalues --   -1.13466  -1.04429  -0.93290  -0.85920  -0.84045
 Alpha  occ. eigenvalues --   -0.82281  -0.77271  -0.74919  -0.72042  -0.71211
 Alpha  occ. eigenvalues --   -0.70627  -0.64492  -0.62470  -0.59023  -0.56412
 Alpha  occ. eigenvalues --   -0.53119  -0.51822  -0.51305  -0.50771  -0.50192
 Alpha  occ. eigenvalues --   -0.48481  -0.47414  -0.46379  -0.46163  -0.45207
 Alpha  occ. eigenvalues --   -0.44654  -0.44022  -0.42707  -0.42375  -0.41618
 Alpha  occ. eigenvalues --   -0.40522  -0.40049  -0.39137  -0.38890  -0.36476
 Alpha  occ. eigenvalues --   -0.36399  -0.36126  -0.35733  -0.35644  -0.34602
 Alpha  occ. eigenvalues --   -0.33581  -0.31772  -0.28363  -0.27200  -0.26933
 Alpha  occ. eigenvalues --   -0.20143
 Alpha virt. eigenvalues --   -0.05430  -0.02506   0.00430   0.01047   0.02613
 Alpha virt. eigenvalues --    0.03427   0.03745   0.04535   0.04781   0.05006
 Alpha virt. eigenvalues --    0.05449   0.05832   0.06166   0.06281   0.06846
 Alpha virt. eigenvalues --    0.07846   0.08233   0.08323   0.09007   0.09232
 Alpha virt. eigenvalues --    0.09403   0.09741   0.10271   0.10843   0.10962
 Alpha virt. eigenvalues --    0.11366   0.11879   0.12565   0.13000   0.13685
 Alpha virt. eigenvalues --    0.14031   0.14319   0.14810   0.15136   0.15460
 Alpha virt. eigenvalues --    0.16011   0.16506   0.16570   0.17135   0.17634
 Alpha virt. eigenvalues --    0.18520   0.18755   0.19258   0.19473   0.19689
 Alpha virt. eigenvalues --    0.20053   0.20907   0.21331   0.21845   0.22413
 Alpha virt. eigenvalues --    0.23147   0.23501   0.24206   0.24312   0.25178
 Alpha virt. eigenvalues --    0.25912   0.26298   0.26593   0.27148   0.27607
 Alpha virt. eigenvalues --    0.28001   0.28588   0.28826   0.29363   0.29658
 Alpha virt. eigenvalues --    0.30244   0.30633   0.31407   0.31475   0.32026
 Alpha virt. eigenvalues --    0.32626   0.32972   0.33738   0.34272   0.34979
 Alpha virt. eigenvalues --    0.35603   0.36788   0.37792   0.37877   0.40602
 Alpha virt. eigenvalues --    0.41555   0.42076   0.42215   0.42934   0.44522
 Alpha virt. eigenvalues --    0.46173   0.47324   0.47574   0.48118   0.49877
 Alpha virt. eigenvalues --    0.50592   0.51180   0.51757   0.52075   0.52313
 Alpha virt. eigenvalues --    0.53010   0.53758   0.54371   0.55449   0.56170
 Alpha virt. eigenvalues --    0.56904   0.57442   0.58373   0.59827   0.60288
 Alpha virt. eigenvalues --    0.60546   0.61776   0.62494   0.63305   0.63919
 Alpha virt. eigenvalues --    0.64511   0.65011   0.65506   0.65700   0.66783
 Alpha virt. eigenvalues --    0.68133   0.68409   0.68587   0.70086   0.71031
 Alpha virt. eigenvalues --    0.72100   0.72638   0.72949   0.73336   0.74193
 Alpha virt. eigenvalues --    0.74907   0.75714   0.76463   0.77497   0.78507
 Alpha virt. eigenvalues --    0.78971   0.79582   0.80626   0.81781   0.82379
 Alpha virt. eigenvalues --    0.82840   0.83314   0.83892   0.84733   0.85489
 Alpha virt. eigenvalues --    0.86031   0.86975   0.88044   0.88690   0.88770
 Alpha virt. eigenvalues --    0.89049   0.89694   0.90338   0.91082   0.91817
 Alpha virt. eigenvalues --    0.92141   0.92830   0.94350   0.94989   0.95146
 Alpha virt. eigenvalues --    0.95885   0.97727   0.97793   0.98297   0.99096
 Alpha virt. eigenvalues --    1.00111   1.01495   1.02158   1.03335   1.04070
 Alpha virt. eigenvalues --    1.04824   1.07317   1.08587   1.09028   1.11274
 Alpha virt. eigenvalues --    1.12449   1.14277   1.14958   1.15652   1.17154
 Alpha virt. eigenvalues --    1.18635   1.20167   1.22097   1.22308   1.23576
 Alpha virt. eigenvalues --    1.25670   1.28938   1.30186   1.30721   1.32285
 Alpha virt. eigenvalues --    1.36109   1.37940   1.39553   1.40144   1.41392
 Alpha virt. eigenvalues --    1.44295   1.45198   1.45805   1.48009   1.48821
 Alpha virt. eigenvalues --    1.50044   1.50216   1.50722   1.52901   1.56115
 Alpha virt. eigenvalues --    1.57245   1.59399   1.62686   1.63086   1.63392
 Alpha virt. eigenvalues --    1.65277   1.65618   1.66727   1.68126   1.68549
 Alpha virt. eigenvalues --    1.69198   1.71529   1.72211   1.73098   1.74509
 Alpha virt. eigenvalues --    1.75235   1.76452   1.77897   1.78860   1.79425
 Alpha virt. eigenvalues --    1.79658   1.80093   1.80726   1.82137   1.82535
 Alpha virt. eigenvalues --    1.83976   1.85055   1.85395   1.86189   1.86458
 Alpha virt. eigenvalues --    1.87670   1.89486   1.92249   1.92340   1.93842
 Alpha virt. eigenvalues --    1.95134   1.95934   1.97912   1.98306   1.99434
 Alpha virt. eigenvalues --    1.99870   2.01547   2.03231   2.03850   2.05553
 Alpha virt. eigenvalues --    2.06525   2.07367   2.10180   2.11732   2.13543
 Alpha virt. eigenvalues --    2.14619   2.16151   2.16844   2.24535   2.25645
 Alpha virt. eigenvalues --    2.28078   2.28585   2.30792   2.33132   2.34487
 Alpha virt. eigenvalues --    2.36415   2.38731   2.39429   2.40268   2.40984
 Alpha virt. eigenvalues --    2.42931   2.44740   2.47175   2.48678   2.49614
 Alpha virt. eigenvalues --    2.53797   2.54227   2.55050   2.58091   2.58560
 Alpha virt. eigenvalues --    2.60638   2.63668   2.65200   2.66103   2.67479
 Alpha virt. eigenvalues --    2.70613   2.75527   2.75719   2.76732   2.80426
 Alpha virt. eigenvalues --    2.82522   2.82689   2.83172   2.83207   2.84115
 Alpha virt. eigenvalues --    2.84288   2.85321   2.86329   2.87017   2.87748
 Alpha virt. eigenvalues --    2.88367   2.89627   2.91302   2.92991   2.93521
 Alpha virt. eigenvalues --    2.94398   2.95725   2.96778   2.97997   2.98433
 Alpha virt. eigenvalues --    2.99221   3.02924   3.03593   3.03980   3.06503
 Alpha virt. eigenvalues --    3.08155   3.15625   3.18062   3.19395   3.20340
 Alpha virt. eigenvalues --    3.26185   3.28174   3.29469   3.31125   3.31805
 Alpha virt. eigenvalues --    3.34569   3.35578   3.37181   3.38454   3.40861
 Alpha virt. eigenvalues --    3.42158   3.43512   3.44897   3.47763   3.50086
 Alpha virt. eigenvalues --    3.53487   3.57046   3.60119   3.63354   3.64823
 Alpha virt. eigenvalues --    3.77013   3.93951   4.47042   4.56923   4.62134
 Alpha virt. eigenvalues --    4.64126   4.72265   4.73956   4.74625   4.86601
 Alpha virt. eigenvalues --    4.91276   5.03065   5.44511   5.81678   5.84352
 Alpha virt. eigenvalues --    6.07945  22.21305  22.63218  58.49123  58.49224
 Alpha virt. eigenvalues --   58.50353  58.50614  58.50846  58.55737  58.56166
 Alpha virt. eigenvalues --   58.56247  58.56486  58.56760  95.61901 106.32198
 Alpha virt. eigenvalues --  106.33229 106.39104
  Beta  occ. eigenvalues --  -89.28824 -89.08214 -19.24729 -19.24262 -19.21204
  Beta  occ. eigenvalues --  -14.47322 -10.29840 -10.29718 -10.29215 -10.28808
  Beta  occ. eigenvalues --  -10.26176 -10.24910 -10.23124 -10.22697 -10.22600
  Beta  occ. eigenvalues --  -10.22415  -8.22138  -8.04457  -6.15860  -6.15819
  Beta  occ. eigenvalues --   -6.15703  -5.98300  -5.97919  -5.97199  -1.14664
  Beta  occ. eigenvalues --   -1.10830  -1.04429  -0.92341  -0.85728  -0.83943
  Beta  occ. eigenvalues --   -0.82144  -0.77071  -0.73853  -0.71803  -0.71085
  Beta  occ. eigenvalues --   -0.70158  -0.64439  -0.62340  -0.58643  -0.55898
  Beta  occ. eigenvalues --   -0.53033  -0.51814  -0.51024  -0.50420  -0.48392
  Beta  occ. eigenvalues --   -0.47496  -0.47157  -0.46370  -0.46095  -0.44949
  Beta  occ. eigenvalues --   -0.44302  -0.43891  -0.42498  -0.41584  -0.41122
  Beta  occ. eigenvalues --   -0.40212  -0.40015  -0.38786  -0.37648  -0.36345
  Beta  occ. eigenvalues --   -0.36090  -0.35702  -0.35646  -0.34574  -0.33579
  Beta  occ. eigenvalues --   -0.32723  -0.31769  -0.28270  -0.26744  -0.26006
  Beta virt. eigenvalues --   -0.05432  -0.03791  -0.02461   0.00441   0.01052
  Beta virt. eigenvalues --    0.02634   0.03448   0.03785   0.04568   0.04870
  Beta virt. eigenvalues --    0.05041   0.05476   0.05877   0.06194   0.06310
  Beta virt. eigenvalues --    0.06919   0.07865   0.08274   0.08435   0.09038
  Beta virt. eigenvalues --    0.09320   0.09438   0.09816   0.10321   0.10905
  Beta virt. eigenvalues --    0.10975   0.11403   0.11972   0.12671   0.13093
  Beta virt. eigenvalues --    0.13742   0.14080   0.14371   0.14935   0.15239
  Beta virt. eigenvalues --    0.15692   0.16097   0.16583   0.16882   0.17311
  Beta virt. eigenvalues --    0.17740   0.18562   0.18903   0.19331   0.19749
  Beta virt. eigenvalues --    0.19817   0.20234   0.21002   0.21461   0.21938
  Beta virt. eigenvalues --    0.22510   0.23329   0.23546   0.24345   0.24687
  Beta virt. eigenvalues --    0.25357   0.26072   0.26376   0.26673   0.27191
  Beta virt. eigenvalues --    0.27674   0.28075   0.28740   0.29034   0.29428
  Beta virt. eigenvalues --    0.30011   0.30531   0.30751   0.31529   0.31831
  Beta virt. eigenvalues --    0.32104   0.32757   0.33213   0.33964   0.34333
  Beta virt. eigenvalues --    0.35066   0.35795   0.36819   0.37875   0.37958
  Beta virt. eigenvalues --    0.40630   0.41598   0.42210   0.42583   0.43055
  Beta virt. eigenvalues --    0.44677   0.46232   0.47400   0.47618   0.48175
  Beta virt. eigenvalues --    0.50049   0.50646   0.51393   0.51864   0.52171
  Beta virt. eigenvalues --    0.52383   0.53064   0.53982   0.54400   0.55506
  Beta virt. eigenvalues --    0.56254   0.56967   0.57516   0.58497   0.59997
  Beta virt. eigenvalues --    0.60400   0.60683   0.61829   0.62539   0.63477
  Beta virt. eigenvalues --    0.63992   0.64579   0.65085   0.65637   0.65970
  Beta virt. eigenvalues --    0.66855   0.68205   0.68603   0.68770   0.70295
  Beta virt. eigenvalues --    0.71284   0.72227   0.72750   0.73012   0.73418
  Beta virt. eigenvalues --    0.74397   0.74936   0.75842   0.76534   0.77538
  Beta virt. eigenvalues --    0.78749   0.79003   0.79785   0.80723   0.81976
  Beta virt. eigenvalues --    0.82504   0.82885   0.83375   0.84003   0.84815
  Beta virt. eigenvalues --    0.85537   0.86149   0.87077   0.88068   0.88758
  Beta virt. eigenvalues --    0.88813   0.89089   0.89745   0.90400   0.91148
  Beta virt. eigenvalues --    0.91889   0.92260   0.93121   0.94482   0.95078
  Beta virt. eigenvalues --    0.95231   0.96075   0.97791   0.98113   0.98896
  Beta virt. eigenvalues --    0.99617   1.00427   1.01793   1.02192   1.03438
  Beta virt. eigenvalues --    1.04177   1.04950   1.07377   1.08647   1.09386
  Beta virt. eigenvalues --    1.11594   1.12477   1.14355   1.15032   1.15780
  Beta virt. eigenvalues --    1.17394   1.18870   1.20655   1.22455   1.23017
  Beta virt. eigenvalues --    1.24148   1.26084   1.29364   1.30440   1.31816
  Beta virt. eigenvalues --    1.32558   1.36515   1.38222   1.39596   1.40207
  Beta virt. eigenvalues --    1.41478   1.44321   1.45396   1.46089   1.48329
  Beta virt. eigenvalues --    1.48882   1.50123   1.50269   1.50777   1.52940
  Beta virt. eigenvalues --    1.56299   1.57320   1.59526   1.62702   1.63106
  Beta virt. eigenvalues --    1.63408   1.65663   1.65811   1.67214   1.68228
  Beta virt. eigenvalues --    1.68566   1.69543   1.71642   1.72301   1.73204
  Beta virt. eigenvalues --    1.74584   1.75299   1.76531   1.77984   1.78915
  Beta virt. eigenvalues --    1.79472   1.79739   1.80174   1.80751   1.82217
  Beta virt. eigenvalues --    1.82656   1.84096   1.85100   1.85497   1.86333
  Beta virt. eigenvalues --    1.86605   1.87821   1.89587   1.92479   1.92634
  Beta virt. eigenvalues --    1.93888   1.95143   1.95952   1.98015   1.98480
  Beta virt. eigenvalues --    1.99758   2.00108   2.01923   2.03540   2.04018
  Beta virt. eigenvalues --    2.06143   2.06867   2.07563   2.10441   2.12419
  Beta virt. eigenvalues --    2.13645   2.14868   2.16198   2.17246   2.25272
  Beta virt. eigenvalues --    2.25883   2.28142   2.29784   2.30867   2.33207
  Beta virt. eigenvalues --    2.34652   2.36510   2.38734   2.39431   2.40385
  Beta virt. eigenvalues --    2.41370   2.43196   2.44839   2.47340   2.49196
  Beta virt. eigenvalues --    2.49751   2.53894   2.55224   2.55501   2.58493
  Beta virt. eigenvalues --    2.58750   2.60688   2.63719   2.65334   2.66156
  Beta virt. eigenvalues --    2.68367   2.70804   2.75711   2.75962   2.77005
  Beta virt. eigenvalues --    2.80626   2.82539   2.82740   2.83187   2.84026
  Beta virt. eigenvalues --    2.84219   2.85342   2.86023   2.86925   2.87042
  Beta virt. eigenvalues --    2.87896   2.89510   2.89908   2.91576   2.93057
  Beta virt. eigenvalues --    2.94533   2.94928   2.96353   2.96950   2.98156
  Beta virt. eigenvalues --    2.98498   2.99725   3.03120   3.04078   3.04456
  Beta virt. eigenvalues --    3.06612   3.08263   3.15964   3.19032   3.19545
  Beta virt. eigenvalues --    3.23973   3.26194   3.28177   3.29752   3.31158
  Beta virt. eigenvalues --    3.31920   3.34614   3.35589   3.37229   3.38481
  Beta virt. eigenvalues --    3.40941   3.42211   3.43670   3.44944   3.47862
  Beta virt. eigenvalues --    3.50216   3.53664   3.57071   3.60167   3.63462
  Beta virt. eigenvalues --    3.64847   3.77033   3.95655   4.47113   4.56984
  Beta virt. eigenvalues --    4.62134   4.64244   4.72342   4.74058   4.74729
  Beta virt. eigenvalues --    4.86728   4.91315   5.03068   5.46404   5.81691
  Beta virt. eigenvalues --    5.84354   6.10446  22.21305  22.63218  58.49121
  Beta virt. eigenvalues --   58.49224  58.50337  58.50575  58.50792  58.55779
  Beta virt. eigenvalues --   58.56212  58.56288  58.56534  58.56762  95.62832
  Beta virt. eigenvalues --  106.32201 106.33229 106.40243
          Condensed to atoms (all electrons):
               1          2          3          4          5          6
     1  O    8.664457  -0.010359  -0.090680  -0.001819   0.038507  -0.003601
     2  N   -0.010359   7.370265   0.081913  -0.058705  -0.023582   0.016389
     3  C   -0.090680   0.081913   5.450788   0.245483  -0.112257   0.018517
     4  C   -0.001819  -0.058705   0.245483   5.176431   0.614526  -0.031266
     5  C    0.038507  -0.023582  -0.112257   0.614526   5.426334   0.192061
     6  C   -0.003601   0.016389   0.018517  -0.031266   0.192061   5.224841
     7  S   -0.000770   0.005307   0.000018  -0.002811  -0.133145   0.258855
     8  C   -0.073222   0.053840  -0.137787  -0.066136   0.202844  -0.076782
     9  C   -0.010370  -0.089384   0.006793  -0.002348  -0.070170   0.010111
    10  C   -0.011477  -0.085868   0.017984  -0.011150  -0.073062   0.004315
    11  C   -0.007916  -0.105868   0.305938  -0.041765  -0.004984  -0.002659
    12  C   -0.001157  -0.089584   0.311849  -0.075574  -0.008031  -0.001452
    13  H   -0.000575   0.002623  -0.035242   0.405566  -0.048991  -0.001745
    14  H    0.000073  -0.002615   0.003697   0.024224  -0.084333   0.420396
    15  H    0.000103  -0.002438  -0.000370   0.004755  -0.063010   0.407650
    16  H   -0.001048   0.018081  -0.002795   0.002962  -0.001503  -0.000444
    17  H   -0.000675   0.005463  -0.000392   0.001138  -0.005546   0.002310
    18  H    0.007435  -0.021821   0.001179  -0.000910   0.008274  -0.001027
    19  H    0.008106  -0.027618  -0.001368  -0.001523   0.020519  -0.001461
    20  H   -0.000381   0.005578  -0.000708   0.001386  -0.004181   0.002644
    21  H   -0.000684   0.003852   0.000733   0.001061   0.000794   0.002908
    22  H   -0.000464   0.001647  -0.057993   0.000361   0.008508  -0.000730
    23  H   -0.000318   0.005696  -0.047777   0.003052   0.001068  -0.000042
    24  H    0.006340  -0.024437  -0.032108   0.014749  -0.002544   0.000093
    25  H    0.007965  -0.028906  -0.027870   0.016132  -0.001008   0.000025
    26  H   -0.000912   0.010764  -0.048544  -0.001481  -0.000242  -0.000018
    27  H   -0.000536   0.014182  -0.062025  -0.005325   0.004237  -0.000615
    28  S    0.000005  -0.002494   0.000918  -0.030299  -0.008730  -0.003964
    29  O    0.000012   0.006601  -0.005468   0.028046   0.013368   0.005136
    30  O    0.000097   0.000013  -0.007622   0.025093   0.022611  -0.023983
    31  C    0.000002   0.000241  -0.000753   0.002706   0.004991  -0.000424
    32  H    0.000000  -0.000010   0.000031  -0.000091  -0.000515   0.000219
    33  H   -0.000000   0.000006   0.000013  -0.000030   0.000143   0.000178
    34  H    0.000000  -0.000003  -0.000020  -0.000431  -0.000040  -0.000399
               7          8          9         10         11         12
     1  O   -0.000770  -0.073222  -0.010370  -0.011477  -0.007916  -0.001157
     2  N    0.005307   0.053840  -0.089384  -0.085868  -0.105868  -0.089584
     3  C    0.000018  -0.137787   0.006793   0.017984   0.305938   0.311849
     4  C   -0.002811  -0.066136  -0.002348  -0.011150  -0.041765  -0.075574
     5  C   -0.133145   0.202844  -0.070170  -0.073062  -0.004984  -0.008031
     6  C    0.258855  -0.076782   0.010111   0.004315  -0.002659  -0.001452
     7  S   15.874216  -0.001973   0.002577  -0.000726  -0.000224   0.000970
     8  C   -0.001973   5.450579   0.326420   0.321399   0.014523   0.022059
     9  C    0.002577   0.326420   5.011969  -0.084849  -0.005214   0.004844
    10  C   -0.000726   0.321399  -0.084849   5.031796   0.005145  -0.006232
    11  C   -0.000224   0.014523  -0.005214   0.005145   5.029372  -0.080532
    12  C    0.000970   0.022059   0.004844  -0.006232  -0.080532   5.023890
    13  H    0.000011   0.012768  -0.000912  -0.001551  -0.001010   0.003183
    14  H   -0.041739   0.003083  -0.000017  -0.001844  -0.000198  -0.000049
    15  H   -0.042263   0.007918  -0.001075   0.005888   0.000303  -0.000058
    16  H    0.000535  -0.065630   0.412815   0.009216   0.000136  -0.001286
    17  H    0.000901  -0.033496   0.398838  -0.004233   0.000164  -0.000169
    18  H    0.000240  -0.035448   0.411426  -0.004208   0.000023  -0.000277
    19  H    0.000101  -0.040633  -0.002368   0.416693  -0.000102   0.000030
    20  H   -0.000418  -0.038622  -0.003751   0.401917  -0.000063   0.000134
    21  H   -0.000937  -0.056782   0.008464   0.409620  -0.001076  -0.000042
    22  H   -0.000000  -0.002472   0.000093  -0.001305   0.412178   0.008622
    23  H    0.000004  -0.001003   0.000124  -0.000059   0.406624  -0.002432
    24  H   -0.000014   0.000950  -0.000117  -0.000083   0.412243  -0.003845
    25  H   -0.000049  -0.002982  -0.000182   0.000086  -0.004240   0.409016
    26  H   -0.000004  -0.001046  -0.000146   0.000206  -0.002524   0.406025
    27  H   -0.000007   0.000245  -0.001285   0.000065   0.009058   0.412014
    28  S    0.310444   0.004676  -0.003830  -0.000176  -0.000690   0.002319
    29  O   -0.074560  -0.009659  -0.000562   0.000154   0.000246  -0.007155
    30  O   -0.082438  -0.004605   0.000751   0.000033   0.001007   0.000696
    31  C   -0.052764  -0.001300   0.000269   0.000052   0.000050  -0.000218
    32  H   -0.000825   0.000154  -0.000075  -0.000002  -0.000000  -0.000008
    33  H    0.001572  -0.000040  -0.000001   0.000001  -0.000000  -0.000006
    34  H    0.002400   0.000122   0.000001  -0.000001  -0.000000   0.000010
              13         14         15         16         17         18
     1  O   -0.000575   0.000073   0.000103  -0.001048  -0.000675   0.007435
     2  N    0.002623  -0.002615  -0.002438   0.018081   0.005463  -0.021821
     3  C   -0.035242   0.003697  -0.000370  -0.002795  -0.000392   0.001179
     4  C    0.405566   0.024224   0.004755   0.002962   0.001138  -0.000910
     5  C   -0.048991  -0.084333  -0.063010  -0.001503  -0.005546   0.008274
     6  C   -0.001745   0.420396   0.407650  -0.000444   0.002310  -0.001027
     7  S    0.000011  -0.041739  -0.042263   0.000535   0.000901   0.000240
     8  C    0.012768   0.003083   0.007918  -0.065630  -0.033496  -0.035448
     9  C   -0.000912  -0.000017  -0.001075   0.412815   0.398838   0.411426
    10  C   -0.001551  -0.001844   0.005888   0.009216  -0.004233  -0.004208
    11  C   -0.001010  -0.000198   0.000303   0.000136   0.000164   0.000023
    12  C    0.003183  -0.000049  -0.000058  -0.001286  -0.000169  -0.000277
    13  H    0.508789   0.002251  -0.000015  -0.000030  -0.000001   0.000004
    14  H    0.002251   0.490535  -0.014286  -0.000040  -0.000016   0.000001
    15  H   -0.000015  -0.014286   0.530531   0.000092  -0.000054   0.000013
    16  H   -0.000030  -0.000040   0.000092   0.537168  -0.019882  -0.015399
    17  H   -0.000001  -0.000016  -0.000054  -0.019882   0.566187  -0.020835
    18  H    0.000004   0.000001   0.000013  -0.015399  -0.020835   0.528668
    19  H    0.000005   0.000004  -0.000034  -0.000013  -0.000259   0.001892
    20  H    0.000002   0.000014  -0.000142   0.000080   0.001211  -0.000160
    21  H   -0.000019   0.000002  -0.000189  -0.000139   0.000086   0.000036
    22  H    0.000158   0.000004   0.000001  -0.000001  -0.000000  -0.000000
    23  H    0.000578   0.000001   0.000000   0.000000  -0.000000   0.000000
    24  H    0.000002   0.000000  -0.000000  -0.000000   0.000000  -0.000002
    25  H   -0.000030  -0.000000   0.000000   0.000006   0.000000  -0.000007
    26  H    0.000105  -0.000001   0.000000   0.000007  -0.000000  -0.000000
    27  H   -0.000185  -0.000002   0.000000   0.000232   0.000009   0.000000
    28  S    0.002991  -0.013306   0.003100  -0.000956  -0.000909   0.000350
    29  O   -0.000326   0.000950  -0.000801  -0.000024   0.000161   0.000006
    30  O   -0.000834   0.011303  -0.001304   0.000083   0.000025  -0.000010
    31  C   -0.000099   0.000423  -0.000078   0.000035   0.000046  -0.000002
    32  H    0.000000   0.000005  -0.000000  -0.000000  -0.000000   0.000000
    33  H    0.000000  -0.000011   0.000000   0.000000   0.000000  -0.000000
    34  H    0.000001   0.000028  -0.000000  -0.000000  -0.000000   0.000000
              19         20         21         22         23         24
     1  O    0.008106  -0.000381  -0.000684  -0.000464  -0.000318   0.006340
     2  N   -0.027618   0.005578   0.003852   0.001647   0.005696  -0.024437
     3  C   -0.001368  -0.000708   0.000733  -0.057993  -0.047777  -0.032108
     4  C   -0.001523   0.001386   0.001061   0.000361   0.003052   0.014749
[...]
    29  O   -0.510687   0.000025
    30  O   -0.570769   0.000051
    31  C    0.150976  -0.000004
 Electronic spatial extent (au):  <R**2>=           4773.2928
 Charge=             -0.0000 electrons
 Dipole moment (field-independent basis, Debye):
    X=              4.2523    Y=              1.8577    Z=             -2.0432  Tot=              5.0703
 Quadrupole moment (field-independent basis, Debye-Ang):
   XX=           -108.2725   YY=           -109.0656   ZZ=           -115.9156
   XY=              5.7245   XZ=              6.3456   YZ=             -0.6183
 Traceless Quadrupole moment (field-independent basis, Debye-Ang):
   XX=              2.8120   YY=              2.0190   ZZ=             -4.8310
   XY=              5.7245   XZ=              6.3456   YZ=             -0.6183
 Octapole moment (field-independent basis, Debye-Ang**2):
  XXX=            190.2717  YYY=             -3.8171  ZZZ=              0.3941  XYY=            -14.2347
  XXY=             -7.8504  XXZ=             -8.2914  XZZ=             -1.0033  YZZ=              6.0423
  YYZ=             -2.3230  XYZ=              0.5310
 Hexadecapole moment (field-independent basis, Debye-Ang**3):
 XXXX=          -3991.7026 YYYY=          -1374.4699 ZZZZ=           -668.1599 XXXY=            -13.9280
 XXXZ=            120.1813 YYYX=            -15.5871 YYYZ=              0.8477 ZZZX=            -12.0306
 ZZZY=             -1.8270 XXYY=           -937.9891 XXZZ=           -855.5189 YYZZ=           -347.7494
 XXYZ=             -4.2871 YYXZ=             -4.4263 ZZXY=             14.8565
 N-N= 1.520717760701D+03 E-N=-6.496817961525D+03  KE= 1.459872760106D+03
                          Isotropic Fermi Contact Couplings
        Atom                 a.u.       MegaHertz       Gauss      10(-4) cm-1
     1  O(17)              0.08650     -52.43624     -18.71055     -17.49085
     2  N(14)              0.10740      34.70215      12.38259      11.57539
     3  C(13)             -0.01471     -16.53695      -5.90080      -5.51613
     4  C(13)              0.00031       0.35025       0.12498       0.11683
     5  C(13)             -0.00029      -0.32179      -0.11482      -0.10734
     6  C(13)             -0.00054      -0.60763      -0.21682      -0.20268
     7  S(33)              0.00001       0.00183       0.00065       0.00061
     8  C(13)             -0.01464     -16.45883      -5.87292      -5.49008
     9  C(13)              0.01742      19.58265       6.98758       6.53207
    10  C(13)              0.01309      14.71561       5.25090       4.90860
    11  C(13)              0.01185      13.31943       4.75271       4.44288
    12  C(13)              0.01853      20.82640       7.43138       6.94694
    13  H(1)              -0.00026      -1.16885      -0.41707      -0.38988
    14  H(1)              -0.00003      -0.15443      -0.05510      -0.05151
    15  H(1)               0.00006       0.25484       0.09093       0.08501
    16  H(1)              -0.00033      -1.47027      -0.52463      -0.49043
    17  H(1)               0.00044       1.96111       0.69977       0.65416
    18  H(1)              -0.00050      -2.23474      -0.79741      -0.74543
    19  H(1)              -0.00051      -2.28346      -0.81479      -0.76168
    20  H(1)               0.00022       0.96587       0.34465       0.32218
    21  H(1)              -0.00039      -1.75944      -0.62781      -0.58689
    22  H(1)              -0.00039      -1.73713      -0.61985      -0.57944
    23  H(1)               0.00016       0.73017       0.26054       0.24356
    24  H(1)              -0.00048      -2.12461      -0.75811      -0.70869
    25  H(1)              -0.00049      -2.17814      -0.77721      -0.72655
    26  H(1)               0.00049       2.19258       0.78237       0.73137
    27  H(1)              -0.00034      -1.50166      -0.53583      -0.50090
    28  S(33)             -0.00001      -0.00478      -0.00171      -0.00160
    29  O(17)             -0.00001       0.00496       0.00177       0.00165
    30  O(17)             -0.00001       0.00786       0.00280       0.00262
    31  C(13)              0.00001       0.01407       0.00502       0.00469
    32  H(1)              -0.00000      -0.00057      -0.00020      -0.00019
    33  H(1)               0.00000       0.00671       0.00240       0.00224
    34  H(1)               0.00000       0.00039       0.00014       0.00013
 --------------------------------------------------------
       Center         ----  Spin Dipole Couplings  ----
                      3XX-RR        3YY-RR        3ZZ-RR
 --------------------------------------------------------
     1   Atom       -0.617258     -0.911134      1.528392
     2   Atom       -0.313009     -0.568605      0.881614
     3   Atom       -0.007662      0.010343     -0.002682
     4   Atom        0.007083     -0.005545     -0.001539
     5   Atom        0.009701     -0.006896     -0.002804
     6   Atom        0.002033     -0.001305     -0.000727
     7   Atom        0.003340     -0.001495     -0.001845
     8   Atom        0.000154      0.005581     -0.005735
     9   Atom       -0.010493      0.002170      0.008324
    10   Atom       -0.006985      0.017026     -0.010041
    11   Atom        0.002401      0.000283     -0.002684
    12   Atom       -0.016587      0.018735     -0.002148
    13   Atom        0.001615     -0.001181     -0.000434
    14   Atom        0.001407     -0.001230     -0.000177
    15   Atom        0.001139     -0.000670     -0.000469
    16   Atom        0.003465     -0.003303     -0.000162
    17   Atom        0.000391      0.002173     -0.002565
    18   Atom       -0.002327      0.003947     -0.001619
    19   Atom       -0.005007      0.010400     -0.005392
    20   Atom       -0.001157      0.003911     -0.002755
    21   Atom       -0.005353      0.000412      0.004941
    22   Atom       -0.005152     -0.002174      0.007326
    23   Atom       -0.002537      0.003480     -0.000943
    24   Atom       -0.002483      0.005238     -0.002756
    25   Atom       -0.004364      0.008622     -0.004258
    26   Atom       -0.002631      0.005260     -0.002629
    27   Atom        0.000120      0.001754     -0.001874
    28   Atom        0.001437     -0.000737     -0.000700
    29   Atom        0.001510     -0.000710     -0.000800
    30   Atom        0.001124     -0.000624     -0.000501
    31   Atom        0.000678     -0.000336     -0.000342
    32   Atom        0.000630     -0.000314     -0.000316
    33   Atom        0.000525     -0.000252     -0.000273
    34   Atom        0.000554     -0.000287     -0.000267
 --------------------------------------------------------
                        XY            XZ            YZ
 --------------------------------------------------------
     1   Atom       -0.190671      1.078135     -0.481671
     2   Atom       -0.131238      0.666445     -0.289534
     3   Atom       -0.006791     -0.002475      0.008277
     4   Atom       -0.006233     -0.006276      0.003647
     5   Atom        0.002127     -0.006903     -0.001851
     6   Atom        0.000897     -0.001841     -0.000421
     7   Atom        0.001544      0.000549      0.000375
     8   Atom        0.012069     -0.003015     -0.004432
     9   Atom        0.010727      0.008630      0.021870
    10   Atom       -0.012681      0.005467     -0.018082
    11   Atom        0.014088      0.014090      0.017203
    12   Atom       -0.005315      0.001031     -0.022502
    13   Atom       -0.002606     -0.002934      0.001936
    14   Atom        0.000294     -0.001660     -0.000238
    15   Atom        0.001535     -0.001639     -0.000963
    16   Atom        0.003892      0.007375      0.001990
    17   Atom        0.005129      0.000609      0.001027
    18   Atom        0.004934      0.002149      0.008033
    19   Atom       -0.000911     -0.001366     -0.005577
    20   Atom        0.003168     -0.000999     -0.003339
    21   Atom        0.000771      0.000209     -0.007275
    22   Atom        0.000795      0.002950      0.005495
    23   Atom       -0.000837      0.000011      0.004776
    24   Atom        0.005342      0.001720      0.007397
    25   Atom       -0.001224     -0.001157     -0.005700
    26   Atom       -0.003463     -0.000566      0.000607
    27   Atom       -0.006294      0.005195     -0.004000
    28   Atom       -0.000186     -0.000197      0.000030
    29   Atom       -0.000546      0.000327     -0.000077
    30   Atom       -0.000335     -0.000567      0.000141
    31   Atom       -0.000040     -0.000053      0.000002
    32   Atom        0.000043      0.000066      0.000003
    33   Atom       -0.000121     -0.000026      0.000004
    34   Atom        0.000025     -0.000141     -0.000004
 --------------------------------------------------------


 ---------------------------------------------------------------------------------
              Anisotropic Spin Dipole Couplings in Principal Axis System
 ---------------------------------------------------------------------------------

       Atom             a.u.   MegaHertz   Gauss  10(-4) cm-1        Axes

              Baa    -1.0666    77.175    27.538    25.743  0.9069 -0.1298 -0.4009
     1 O(17)  Bbb    -1.0001    72.365    25.822    24.138  0.1869  0.9766  0.1064
              Bcc     2.0666  -149.540   -53.359   -49.881  0.3777 -0.1714  0.9099
 
              Baa    -0.6248   -24.099    -8.599    -8.038  0.1812  0.9775  0.1077
     2 N(14)  Bbb    -0.6104   -23.543    -8.401    -7.853  0.8977 -0.1196 -0.4242
              Bcc     1.2353    47.642    17.000    15.892  0.4017 -0.1735  0.8992
 
              Baa    -0.0100    -1.336    -0.477    -0.446  0.9369  0.3423 -0.0707
     3 C(13)  Bbb    -0.0065    -0.879    -0.314    -0.293  0.2017 -0.3644  0.9091
              Bcc     0.0165     2.215     0.790     0.739 -0.2854  0.8661  0.4105
 
              Baa    -0.0084    -1.121    -0.400    -0.374  0.2767  0.9298 -0.2429
     4 C(13)  Bbb    -0.0048    -0.646    -0.231    -0.216  0.4967  0.0780  0.8644
              Bcc     0.0132     1.767     0.631     0.589  0.8226 -0.3598 -0.4403
 
              Baa    -0.0076    -1.025    -0.366    -0.342  0.0619  0.8995  0.4326
     5 C(13)  Bbb    -0.0055    -0.736    -0.263    -0.246  0.4240 -0.4161  0.8044
              Bcc     0.0131     1.761     0.628     0.587  0.9036  0.1336 -0.4071
 
              Baa    -0.0017    -0.222    -0.079    -0.074  0.4744 -0.1810  0.8615
     6 C(13)  Bbb    -0.0015    -0.204    -0.073    -0.068 -0.1072  0.9595  0.2607
              Bcc     0.0032     0.426     0.152     0.142  0.8738  0.2160 -0.4358
 
              Baa    -0.0021    -0.088    -0.031    -0.029 -0.1362  0.7238 -0.6764
     7 S(33)  Bbb    -0.0017    -0.071    -0.025    -0.024 -0.2708  0.6296  0.7282
              Bcc     0.0039     0.158     0.056     0.053  0.9529  0.2824  0.1103
 
              Baa    -0.0096    -1.284    -0.458    -0.428  0.7506 -0.6428 -0.1528
     8 C(13)  Bbb    -0.0070    -0.933    -0.333    -0.311  0.2665  0.0829  0.9603
              Bcc     0.0165     2.217     0.791     0.740  0.6046  0.7615 -0.2335
 
              Baa    -0.0184    -2.466    -0.880    -0.822 -0.5267  0.7331 -0.4303
     9 C(13)  Bbb    -0.0133    -1.788    -0.638    -0.596  0.7929  0.2411 -0.5597
              Bcc     0.0317     4.253     1.518     1.419  0.3066  0.6359  0.7082
 
              Baa    -0.0192    -2.573    -0.918    -0.858  0.0982  0.4720  0.8761
    10 C(13)  Bbb    -0.0119    -1.597    -0.570    -0.533  0.9350  0.2576 -0.2436
              Bcc     0.0311     4.170     1.488     1.391 -0.3407  0.8431 -0.4161
 
              Baa    -0.0185    -2.489    -0.888    -0.830 -0.0898 -0.6343  0.7678
    11 C(13)  Bbb    -0.0117    -1.575    -0.562    -0.526  0.8088 -0.4964 -0.3154
              Bcc     0.0303     4.064     1.450     1.356  0.5812  0.5927  0.5576
 
              Baa    -0.0188    -2.523    -0.900    -0.842  0.7529  0.4135  0.5120
    12 C(13)  Bbb    -0.0148    -1.986    -0.709    -0.663 -0.6505  0.3494  0.6744
              Bcc     0.0336     4.510     1.609     1.504 -0.1000  0.8408 -0.5320
 
              Baa    -0.0028    -1.502    -0.536    -0.501  0.2366  0.8758 -0.4207
    13 H(1)   Bbb    -0.0025    -1.336    -0.477    -0.446  0.6444  0.1826  0.7426
              Bcc     0.0053     2.838     1.013     0.947  0.7272 -0.4468 -0.5212
 
              Baa    -0.0013    -0.691    -0.247    -0.230  0.2109  0.8441  0.4929
    14 H(1)   Bbb    -0.0012    -0.639    -0.228    -0.213  0.4985 -0.5266  0.6886
              Bcc     0.0025     1.330     0.474     0.444  0.8409  0.1005 -0.5318
 
              Baa    -0.0016    -0.829    -0.296    -0.277 -0.3265  0.8956  0.3021
    15 H(1)   Bbb    -0.0015    -0.795    -0.284    -0.265  0.5586 -0.0750  0.8260
              Bcc     0.0030     1.624     0.580     0.542  0.7625  0.4384 -0.4758
 
              Baa    -0.0063    -3.374    -1.204    -1.125  0.6472 -0.4112 -0.6419
    16 H(1)   Bbb    -0.0043    -2.270    -0.810    -0.757  0.0473  0.8621 -0.5045
              Bcc     0.0106     5.643     2.014     1.882  0.7608  0.2961  0.5774
 
              Baa    -0.0040    -2.110    -0.753    -0.704  0.7449 -0.6493  0.1535
    17 H(1)   Bbb    -0.0027    -1.433    -0.511    -0.478 -0.1991  0.0032  0.9800
              Bcc     0.0066     3.542     1.264     1.182  0.6367  0.7606  0.1269
 
              Baa    -0.0077    -4.091    -1.460    -1.365  0.2837 -0.6241  0.7281
    18 H(1)   Bbb    -0.0040    -2.129    -0.760    -0.710  0.8913 -0.1085 -0.4403
              Bcc     0.0117     6.220     2.219     2.075  0.3538  0.7738  0.5254
 
              Baa    -0.0080    -4.268    -1.523    -1.424  0.4678  0.2775  0.8391
    19 H(1)   Bbb    -0.0042    -2.233    -0.797    -0.745  0.8834 -0.1182 -0.4534
              Bcc     0.0122     6.500     2.319     2.168 -0.0267  0.9534 -0.3005
 
              Baa    -0.0042    -2.233    -0.797    -0.745 -0.1534  0.4275  0.8909
    20 H(1)   Bbb    -0.0025    -1.338    -0.477    -0.446  0.9085 -0.2937  0.2973
              Bcc     0.0067     3.571     1.274     1.191  0.3888  0.8550 -0.3433
 
              Baa    -0.0059    -3.161    -1.128    -1.054  0.7963 -0.4954 -0.3471
    21 H(1)   Bbb    -0.0044    -2.336    -0.833    -0.779  0.6046  0.6344  0.4817
              Bcc     0.0103     5.496     1.961     1.833 -0.0184 -0.5934  0.8047
 
              Baa    -0.0059    -3.165    -1.129    -1.056  0.9126  0.2637 -0.3124
    22 H(1)   Bbb    -0.0045    -2.397    -0.855    -0.799 -0.3619  0.8766 -0.3173
              Bcc     0.0104     5.561     1.984     1.855  0.1901  0.4026  0.8954
 
              Baa    -0.0041    -2.204    -0.787    -0.735 -0.2849 -0.5318  0.7975
    23 H(1)   Bbb    -0.0025    -1.310    -0.467    -0.437  0.9555 -0.0910  0.2806
              Bcc     0.0066     3.514     1.254     1.172 -0.0766  0.8420  0.5340
 
              Baa    -0.0076    -4.071    -1.453    -1.358  0.3435 -0.5711  0.7455
    24 H(1)   Bbb    -0.0041    -2.204    -0.787    -0.735  0.8673 -0.1115 -0.4851
              Bcc     0.0118     6.275     2.239     2.093  0.3602  0.8133  0.4571
 
              Baa    -0.0072    -3.857    -1.376    -1.287  0.4714  0.3305  0.8177
    25 H(1)   Bbb    -0.0036    -1.915    -0.683    -0.639  0.8806 -0.1251 -0.4571
              Bcc     0.0108     5.772     2.060     1.925 -0.0488  0.9355 -0.3500
 
              Baa    -0.0040    -2.140    -0.764    -0.714  0.9161  0.3271  0.2317
    26 H(1)   Bbb    -0.0026    -1.397    -0.498    -0.466 -0.1888 -0.1578  0.9693
              Bcc     0.0066     3.536     1.262     1.180 -0.3536  0.9317  0.0828
 
              Baa    -0.0064    -3.436    -1.226    -1.146  0.7458  0.2772 -0.6057
    27 H(1)   Bbb    -0.0042    -2.232    -0.797    -0.745  0.2615  0.7144  0.6490
              Bcc     0.0106     5.668     2.022     1.891 -0.6127  0.6424 -0.4603
 
              Baa    -0.0008    -0.031    -0.011    -0.010  0.0522  0.9478 -0.3145
    28 S(33)  Bbb    -0.0007    -0.029    -0.010    -0.010  0.1130  0.3073  0.9449
              Bcc     0.0015     0.060     0.022     0.020  0.9922 -0.0849 -0.0910
 
              Baa    -0.0008     0.061     0.022     0.020 -0.1138  0.1014  0.9883
    29 O(17)  Bbb    -0.0008     0.061     0.022     0.020  0.2356  0.9692 -0.0723
              Bcc     0.0017    -0.122    -0.043    -0.041  0.9652 -0.2246  0.1341
 
              Baa    -0.0007     0.052     0.019     0.017 -0.0669  0.7484 -0.6599
    30 O(17)  Bbb    -0.0007     0.047     0.017     0.016  0.3411  0.6387  0.6897
              Bcc     0.0014    -0.099    -0.035    -0.033  0.9376 -0.1789 -0.2980
 
              Baa    -0.0003    -0.046    -0.017    -0.015  0.0542  0.0749  0.9957
    31 C(13)  Bbb    -0.0003    -0.045    -0.016    -0.015  0.0351  0.9964 -0.0769
              Bcc     0.0007     0.092     0.033     0.031  0.9979 -0.0391 -0.0514
 
              Baa    -0.0003    -0.171    -0.061    -0.057 -0.0704  0.0276  0.9971
    32 H(1)   Bbb    -0.0003    -0.169    -0.060    -0.056 -0.0430  0.9986 -0.0307
              Bcc     0.0006     0.339     0.121     0.113  0.9966  0.0451  0.0691
 
              Baa    -0.0003    -0.146    -0.052    -0.049  0.0346  0.0175  0.9992
    33 H(1)   Bbb    -0.0003    -0.144    -0.051    -0.048  0.1494  0.9885 -0.0225
              Bcc     0.0005     0.290     0.104     0.097  0.9882 -0.1501 -0.0316
 
              Baa    -0.0003    -0.155    -0.055    -0.052  0.1672 -0.1250  0.9780
    34 H(1)   Bbb    -0.0003    -0.153    -0.055    -0.051 -0.0082  0.9917  0.1282
              Bcc     0.0006     0.309     0.110     0.103  0.9859  0.0295 -0.1648
 

 ---------------------------------------------------------------------------------

 No NMR shielding tensors so no spin-rotation constants.
 Leave Link  601 at Mon Jun 17 21:33:25 2019, MaxMem=  8053063680 cpu:               0.0 elap:               0.3
 (Enter /data2/g16/g16/l9999.exe)
 1\1\GINC-CU09\SP\UPBE1PBE\Gen\C10H18N1O3S2(2)\ROOT\17-Jun-2019\0\\#p g
 en 6d pbe1pbe\\start preoptimized\\0,2\O,0,-3.765282,0.207849,0.867201
 \N,0,-2.607031,0.034669,0.384021\C,0,-2.160433,-1.267829,-0.156132\C,0
 ,-0.881883,-0.849692,-0.821539\C,0,-0.606204,0.449374,-0.658588\C,0,0.
 604745,1.125776,-1.199388\S,0,1.942167,1.440761,0.033285\C,0,-1.691706
 ,1.165435,0.116541\C,0,-1.232336,1.76591,1.449011\C,0,-2.426299,2.2184
 54,-0.717314\C,0,-3.213701,-1.807944,-1.12718\C,0,-1.915442,-2.259464,
 0.986431\H,0,-0.242333,-1.558874,-1.340313\H,0,1.061389,0.539649,-2.00
 3742\H,0,0.388748,2.129795,-1.583368\H,0,-0.661915,1.03864,2.036219\H,
 0,-0.602783,2.647465,1.289961\H,0,-2.116528,2.070491,2.020222\H,0,-3.3
 17792,2.543535,-0.174446\H,0,-1.788585,3.09283,-0.890469\H,0,-2.735898
 ,1.808568,-1.685186\H,0,-3.372685,-1.115858,-1.958764\H,0,-2.898384,-2
 .773933,-1.530876\H,0,-4.162869,-1.938748,-0.594938\H,0,-2.842951,-2.4
 06914,1.55177\H,0,-1.589777,-3.226313,0.588968\H,0,-1.139909,-1.88755,
 1.666499\S,0,2.758823,-0.534888,0.110276\O,0,2.337032,-1.21319,1.35312
 4\O,0,2.508239,-1.183862,-1.203559\C,0,4.510088,-0.16848,0.247946\H,0,
 4.659552,0.449018,1.134187\H,0,4.999413,-1.139187,0.364406\H,0,4.83039
 8,0.334514,-0.665995\\Version=AM64L-G16RevB.01\State=2-A\HF=-1467.5483
 576\S2=0.755025\S2-1=0.\S2A=0.750017\RMSD=8.908e-09\Dipole=1.6769028,0
 .7275626,-0.7986548\Quadrupole=2.0852689,1.4815186,-3.5667875,4.251701
 ,4.7358604,-0.4549231\PG=C01 [X(C10H18N1O3S2)]\\@


 I DO NOT KNOW WHAT I MAY APPEAR TO THE WORLD; BUT TO MYSELF
 I SEEM TO HAVE BEEN ONLY LIKE A BOY PLAYING ON THE SEASHORE,
 AND DIVERTING MYSELF IN NOW AND THEN FINDING A SMOOTHER PEBBLE
 OR A PRETTIER SHELL THAN ORDINARY, WHILST THE GREAT OCEAN OF
 TRUTH LAY ALL UNDISCOVERED BEFORE ME.
                                          -- NEWTON (1642-1726)
 Elapsed time:       0 days  0 hours  2 minutes 41.2 seconds.
 File lengths (MBytes):  RWF=    181 Int=      0 D2E=      0 Chk=     15 Scr=      1
 Normal termination of Gaussian 16 at Mon Jun 17 21:33:26 2019.
