 Entering Gaussian System, Link 0=g16
 AtFile(1): /home/malgo/Basis_sets/n07d_pbe0.gbs
            -H 0
             6-31G
             S   1 1.00       0.000000000000
                  0.4000000000D+00  0.10000000D+01
             P   1 1.00       0.000000000000
                  0.7500000000D+00  0.10000000D+01
             ****
             -He 0
             6-31+G**
             ****
             -Li 0
             6-31+G**
             ****
             -Be 0
             6-31+G**
             ****
             -B 0
             6-31G
             S   1 1.00       0.000000000000
                  0.7000000000D+01  0.1000000000D+01
             P   1 1.00       0.000000000000
                  0.3500000000D-01  0.1000000000D+01
             D   1 1.00
                  0.3430000000D+00  0.1000000000D+01
             ****
             -C 0
             6-31G
             S   1 1.00       0.000000000000
                  0.8700000000D+01  0.1000000000D+01
             P   1 1.00       0.000000000000
                  0.5000000000D-01  0.1000000000D+01
             D   1 1.00
                  0.8200000000D+00  0.1000000000D+01
             ****
             -N 0
             6-31G
             S   1 1.00       0.000000000000
                  0.1370000000D+02  0.1000000000D+01
             P   1 1.00       0.000000000000
                  0.5300000000D-01  0.1000000000D+01
             D   1 1.00       0.000000000000
                  0.1015000000D+01  0.1000000000D+01
             ****
             -O 0
             6-31G
             S   1 1.00
                  0.1600000000D+02  0.1000000000D+01
             P   1 1.00       0.000000000000
                  0.6500000000D-01  0.1000000000D+01
             D   1 1.00        0.000000000000
                  0.1190000000D+01  0.1000000000D+01
             D   1 1.00        0.000000000000
                  0.1800000000D+00  0.1000000000D+01
             ****
             -F 0
             6-31G
             S   1 1.00
                  0.1770000000D+02  0.1000000000D+01
             P   1 1.00       0.000000000000
                  0.8300000000D-01  0.1000000000D+01
             D   1 1.00       0.000000000000
                  1.3700000000D+00  0.1000000000D+01
             D   1 1.00       0.000000000000
                  0.2300000000D+00  0.1000000000D+01
             ****
             -Ne 0
             6-31+G**
             ****
             -Na 0
             6-31+G**
             ****
             -Mg 0
             6-31+G**
             ****
             -Al 0
             6-31G
             S   1 1.00      0.000000000000
                  0.3100000000D+01  0.1000000000D+01
             P   1 1.00      0.000000000000
                  0.1500000000D-01  0.1000000000D+01
             D   1 1.00      0.000000000000
                  0.1890000000D+00  0.1000000000D+01
             ****
             -Si 0
             6-31G
             S   1 1.00      0.000000000000
                  0.5000000000D+01  0.1000000000D+01
             P   1 1.00       0.000000000000
                  0.3300000000D-01  0.1000000000D+01
             D   1 1.0        0.000000000000
                  0.2750000000D+00  0.1000000000D+01
             ****
             -P  0
             6-31G
             S   1 1.00       0.000000000000
                  0.6300000000D+01  0.1000000000D+01
             P   1 1.00       0.000000000000
                  0.3500000000D-01  0.1000000000D+01
             D   1 1.00       0.000000000000
                  0.3730000000D+00  0.1000000000D+01
             ****
             -S  0
             6-31G
             S   1  1.00      0.000000000000
                  0.7500000000D+01  0.1000000000D+01
             P   1 1.00       0.000000000000
                  0.4100000000D-01  0.1000000000D+01
             D   1 1.00       0.000000000000
                  0.4790000000D+00  0.1000000000D+01
             ****
            -Cl 0
             6-31G
             S   1 1.00       0.000000000000
                  0.8500000000D+01  0.1000000000D+01
             P   1 1.00       0.000000000000
                  0.4800000000D-01  0.1000000000D+01
             D   1 1.00       0.000000000000
                  0.6000000000D+00  0.1000000000D+01
             D   1 1.00       0.000000000000
                  0.1960000000D+00  0.1000000000D+01
             ****
            -Br 0
             S   3 1.00       0.000000000000
                  0.4721881000D+01  0.1749732514D+00
                  0.2257555000D+01 -0.7074172290D+00
                  0.3896080000D+00  0.1258999543D+01
             S   1 1.00       0.000000000000
                  0.1471340000D+00  0.1000000000D+01
             P   3 1.00       0.000000000000
                  0.1896942000D+01 -0.2464576731D+00
                  0.9108990000D+00  0.3623179892D+00
                  0.3168550000D+00  0.8338469725D+00
             P   1 1.00       0.000000000000
                  0.1095030000D+00  0.1000000000D+01
             P   1 1.00       0.000000000000
                  0.3609700000D-01  0.1000000000D+01
             D   1 1.00
                  0.4750000000D+00  0.1000000000D+01
             D   1 1.00
                  0.1280000000D+00  0.1000000000D+01
             ****
            -I   0
             S   3 1.00       0.000000000000
                  0.2122765000D+01  0.2063429899D+01
                  0.1770481000D+01 -0.2869526473D+01
                  0.3130840000D+00  0.1404747074D+01
             S   1 1.00       0.000000000000
                  0.1320000000D+00  0.1000000000D+01
             P   3 1.00       0.000000000000
                  0.2432887000D+01  0.7732753148D+00
                  0.2137249000D+01 -0.1020833156D+01
                  0.3145460000D+00  0.1095666871D+01
             P   1 1.00       0.000000000000
                  0.1049450000D+00  0.1000000000D+01
             P   1 1.00       0.000000000000
                  0.3264100000D-01  0.1000000000D+01
             D   1 1.00
                  0.300000000          1.00000000
             D   1 1.00
                  0.090000000          1.00000000
             ****
             -Zn 0
             SP   6 1.00       0.000000000000
                  0.6936492000D+02 -0.4440098182D-02 -0.7689261805D-02
                  0.2362082000D+02  0.7505253308D-01 -0.2997981924D-01
                  0.1018471000D+02  0.2533111104D+00  0.7082410821D-01
                  0.4334082000D+01 -0.2881897118D+00  0.4046140897D+00
                  0.1810918000D+01 -0.7267052298D+00  0.4882324876D+00
                  0.7148410000D+00 -0.2133439088D+00  0.1751969956D+00
             SP   3 1.00       0.000000000000
                  0.2823842000D+01  0.4898545031D-01 -0.1586762981D+00
                  0.1039543000D+01  0.2592794075D+00  0.8379326898D-01
                  0.1432640000D+00 -0.1115711463D+01  0.9840546881D+00
             SP   1 1.00       0.000000000000
                  0.4929600000D-01  0.1000000000D+01  0.1000000000D+01
             S    1 1.00       0.000000000000
                  0.1620000000D+00  0.1000000000D+01
             D    3 1.00       0.000000000000
                  0.3370764000D+02  0.9262647815D-01
                  0.9061106000D+01  0.4002979920D+00
                  0.2738383000D+01  0.6896607863D+00
             D    1 1.00
                  0.2440000000D+01  0.1000000000D+01
             D    1 1.00       0.000000000000
                  0.7302940000D+00  0.1000000000D+01
             D    1 1.00       0.000000000000
                  0.1620000000D+00  0.1000000000D+01
            ****
 Initial command:
 /data2/g16/g16/l1.exe "/tmp/Gau-21297.inp" -scrdir="/tmp/"
 Entering Link 1 = /data2/g16/g16/l1.exe PID=     21298.
  
 Copyright (c) 1988-2017, Gaussian, Inc.  All Rights Reserved.
  
 This is part of the Gaussian(R) 16 program.  It is based on
 the Gaussian(R) 09 system (copyright 2009, Gaussian, Inc.),
 the Gaussian(R) 03 system (copyright 2003, Gaussian, Inc.),
 the Gaussian(R) 98 system (copyright 1998, Gaussian, Inc.),
 the Gaussian(R) 94 system (copyright 1995, Gaussian, Inc.),
 the Gaussian 92(TM) system (copyright 1992, Gaussian, Inc.),
 the Gaussian 90(TM) system (copyright 1990, Gaussian, Inc.),
 the Gaussian 88(TM) system (copyright 1988, Gaussian, Inc.),
 the Gaussian 86(TM) system (copyright 1986, Carnegie Mellon
 University), and the Gaussian 82(TM) system (copyright 1983,
 Carnegie Mellon University). Gaussian is a federally registered
 trademark of Gaussian, Inc.
  
 This software contains proprietary and confidential information,
 including trade secrets, belonging to Gaussian, Inc.
  
 This software is provided under written license and may be
 used, copied, transmitted, or stored only in accord with that
 written license.
  
 The following legend is applicable only to US Government
 contracts under FAR:
  
                    RESTRICTED RIGHTS LEGEND
  
 Use, reproduction and disclosure by the US Government is
 subject to restrictions as set forth in subparagraphs (a)
 and (c) of the Commercial Computer Software - Restricted
 Rights clause in FAR 52.227-19.
  
 Gaussian, Inc.
 340 Quinnipiac St., Bldg. 40, Wallingford CT 06492
  
  
 ---------------------------------------------------------------
 Warning -- This program may not be used in any manner that
 competes with the business of Gaussian, Inc. or will provide
 assistance to any competitor of Gaussian, Inc.  The licensee
 of this program is prohibited from giving any competitor of
 Gaussian, Inc. access to this program.  By using this program,
 the user acknowledges that Gaussian, Inc. is engaged in the
 business of creating and licensing software in the field of
 computational chemistry and represents and warrants to the
 licensee that it is not a competitor of Gaussian, Inc. and that
 it will not use this program in any manner prohibited above.
 ---------------------------------------------------------------
  

 Cite this work as:
 Gaussian 16, Revision B.01,
 M. J. Frisch, G. W. Trucks, H. B. Schlegel, G. E. Scuseria, 
 M. A. Robb, J. R. Cheeseman, G. Scalmani, V. Barone, 
 G. A. Petersson, H. Nakatsuji, X. Li, M. Caricato, A. V. Marenich, 
 J. Bloino, B. G. Janesko, R. Gomperts, B. Mennucci, H. P. Hratchian, 
 J. V. Ortiz, A. F. Izmaylov, J. L. Sonnenberg, D. Williams-Young, 
 F. Ding, F. Lipparini, F. Egidi, J. Goings, B. Peng, A. Petrone, 
 T. Henderson, D. Ranasinghe, V. G. Zakrzewski, J. Gao, N. Rega, 
 G. Zheng, W. Liang, M. Hada, M. Ehara, K. Toyota, R. Fukuda, 
 J. Hasegawa, M. Ishida, T. Nakajima, Y. Honda, O. Kitao, H. Nakai, 
 T. Vreven, K. Throssell, J. A. Montgomery, Jr., J. E. Peralta, 
 F. Ogliaro, M. J. Bearpark, J. J. Heyd, E. N. Brothers, K. N. Kudin, 
 V. N. Staroverov, T. A. Keith, R. Kobayashi, J. Normand, 
 K. Raghavachari, A. P. Rendell, J. C. Burant, S. S. Iyengar, 
 J. Tomasi, M. Cossi, J. M. Millam, M. Klene, C. Adamo, R. Cammi, 
 J. W. Ochterski, R. L. Martin, K. Morokuma, O. Farkas, 
 J. B. Foresman, and D. J. Fox, Gaussian, Inc., Wallingford CT, 2016.
 
 ******************************************
 Gaussian 16:  AM64L-G16RevB.01 20-Dec-2017
                12-Jun-2019 
 ******************************************
 %chk=MTN_PBE0_0.20.chk
 %mem=60GB
 %nprocshared=12
 Will use up to   12 processors via shared memory.
 -----------------
 #p gen 6d pbe1pbe
 -----------------
 1/38=1,172=1/1;
 2/12=2,17=6,18=5,40=1/2;
 3/5=7,8=2,11=2,25=1,30=1,74=-13/1,2,3;
 4//1;
 5/5=2,38=5/2;
 6/7=2,8=2,9=2,10=2,28=1/1;
 99/5=1,9=1/99;
 Leave Link    1 at Wed Jun 12 15:26:13 2019, MaxMem=  8053063680 cpu:               0.0 elap:               0.0
 (Enter /data2/g16/g16/l101.exe)
 ------------------
 start preoptimized
 ------------------
 Symbolic Z-matrix:
 Charge =  0 Multiplicity = 2
 O                    -3.67598   0.17025   1.0317 
 N                    -2.63993   0.04407   0.31822 
 C                    -2.16983  -1.26783  -0.17023 
 C                    -0.86308  -0.86379  -0.78394 
 C                    -0.5968    0.43997  -0.64919 
 C                     0.60945   1.12108  -1.19469 
 S                     1.94687   1.45016   0.03329 
 C                    -1.70111   1.16543   0.09304 
 C                    -1.27934   1.74711   1.44431 
 C                    -2.3887    2.23725  -0.75961 
 C                    -3.1573   -1.82674  -1.19768 
 C                    -2.00944  -2.23126   1.00993 
 H                    -0.20943  -1.57767  -1.27921 
 H                     1.06609   0.53495  -1.99434 
 H                     0.38405   2.1204   -1.58337 
 H                    -0.74182   1.00574   2.04092 
 H                    -0.63098   2.61927   1.30876 
 H                    -2.17763   2.05639   1.98732 
 H                    -3.29899   2.57174  -0.24965 
 H                    -1.73689   3.10693  -0.89987 
 H                    -2.6654    1.84147  -1.74159 
 H                    -3.25989  -1.14876  -2.05276 
 H                    -2.81378  -2.80213  -1.56378 
 H                    -4.13937  -1.95285  -0.73124 
 H                    -2.97455  -2.34581   1.51417 
 H                    -1.67438  -3.21221   0.65477 
 H                    -1.27621  -1.85465   1.7276 
 S                     2.75412  -0.53019   0.10558 
 O                     2.32763  -1.20849   1.34842 
 O                     2.49884  -1.16976  -1.20826 
 C                     4.51009  -0.18258   0.23855 
 H                     4.66895   0.43022   1.12949 
 H                     4.99001  -1.15799   0.35031 
 H                     4.8304    0.32511  -0.6707 
 
 ITRead=  0  0  0  0  0  0  0  0  0  0  0  0  0  0  0  0  0  0  0  0
 ITRead=  0  0  0  0  0  0  0  0  0  0  0  0  0  0
 MicOpt= -1 -1 -1 -1 -1 -1 -1 -1 -1 -1 -1 -1 -1 -1 -1 -1 -1 -1 -1 -1
 MicOpt= -1 -1 -1 -1 -1 -1 -1 -1 -1 -1 -1 -1 -1 -1
 NAtoms=     34 NQM=       34 NQMF=       0 NMMI=      0 NMMIF=      0
                NMic=       0 NMicF=      0.
                    Isotopes and Nuclear Properties:
 (Nuclear quadrupole moments (NQMom) in fm**2, nuclear magnetic moments (NMagM)
  in nuclear magnetons)

  Atom         1           2           3           4           5           6           7           8           9          10
 IAtWgt=          16          14          12          12          12          12          32          12          12          12
 AtmWgt=  15.9949146  14.0030740  12.0000000  12.0000000  12.0000000  12.0000000  31.9720718  12.0000000  12.0000000  12.0000000
 NucSpn=           0           2           0           0           0           0           0           0           0           0
 AtZEff=   0.0000000   0.0000000   0.0000000   0.0000000   0.0000000   0.0000000   0.0000000   0.0000000   0.0000000   0.0000000
 NQMom=    0.0000000   2.0440000   0.0000000   0.0000000   0.0000000   0.0000000   0.0000000   0.0000000   0.0000000   0.0000000
 NMagM=    0.0000000   0.4037610   0.0000000   0.0000000   0.0000000   0.0000000   0.0000000   0.0000000   0.0000000   0.0000000
 AtZNuc=   8.0000000   7.0000000   6.0000000   6.0000000   6.0000000   6.0000000  16.0000000   6.0000000   6.0000000   6.0000000

  Atom        11          12          13          14          15          16          17          18          19          20
 IAtWgt=          12          12           1           1           1           1           1           1           1           1
 AtmWgt=  12.0000000  12.0000000   1.0078250   1.0078250   1.0078250   1.0078250   1.0078250   1.0078250   1.0078250   1.0078250
 NucSpn=           0           0           1           1           1           1           1           1           1           1
 AtZEff=   0.0000000   0.0000000   0.0000000   0.0000000   0.0000000   0.0000000   0.0000000   0.0000000   0.0000000   0.0000000
 NQMom=    0.0000000   0.0000000   0.0000000   0.0000000   0.0000000   0.0000000   0.0000000   0.0000000   0.0000000   0.0000000
 NMagM=    0.0000000   0.0000000   2.7928460   2.7928460   2.7928460   2.7928460   2.7928460   2.7928460   2.7928460   2.7928460
 AtZNuc=   6.0000000   6.0000000   1.0000000   1.0000000   1.0000000   1.0000000   1.0000000   1.0000000   1.0000000   1.0000000

  Atom        21          22          23          24          25          26          27          28          29          30
 IAtWgt=           1           1           1           1           1           1           1          32          16          16
 AtmWgt=   1.0078250   1.0078250   1.0078250   1.0078250   1.0078250   1.0078250   1.0078250  31.9720718  15.9949146  15.9949146
 NucSpn=           1           1           1           1           1           1           1           0           0           0
 AtZEff=   0.0000000   0.0000000   0.0000000   0.0000000   0.0000000   0.0000000   0.0000000   0.0000000   0.0000000   0.0000000
 NQMom=    0.0000000   0.0000000   0.0000000   0.0000000   0.0000000   0.0000000   0.0000000   0.0000000   0.0000000   0.0000000
 NMagM=    2.7928460   2.7928460   2.7928460   2.7928460   2.7928460   2.7928460   2.7928460   0.0000000   0.0000000   0.0000000
 AtZNuc=   1.0000000   1.0000000   1.0000000   1.0000000   1.0000000   1.0000000   1.0000000  16.0000000   8.0000000   8.0000000

  Atom        31          32          33          34
 IAtWgt=          12           1           1           1
 AtmWgt=  12.0000000   1.0078250   1.0078250   1.0078250
 NucSpn=           0           1           1           1
 AtZEff=   0.0000000   0.0000000   0.0000000   0.0000000
 NQMom=    0.0000000   0.0000000   0.0000000   0.0000000
 NMagM=    0.0000000   2.7928460   2.7928460   2.7928460
 AtZNuc=   6.0000000   1.0000000   1.0000000   1.0000000
 Leave Link  101 at Wed Jun 12 15:26:13 2019, MaxMem=  8053063680 cpu:               0.0 elap:               0.1
 (Enter /data2/g16/g16/l202.exe)
                          Input orientation:                          
 ---------------------------------------------------------------------
 Center     Atomic      Atomic             Coordinates (Angstroms)
 Number     Number       Type             X           Y           Z
 ---------------------------------------------------------------------
      1          8           0       -3.675982    0.170249    1.031701
      2          7           0       -2.639931    0.044069    0.318221
      3          6           0       -2.169833   -1.267829   -0.170232
      4          6           0       -0.863083   -0.863792   -0.783939
      5          6           0       -0.596804    0.439974   -0.649188
      6          6           0        0.609445    1.121076   -1.194688
      7         16           0        1.946867    1.450161    0.033285
      8          6           0       -1.701106    1.165435    0.093041
      9          6           0       -1.279336    1.747110    1.444311
     10          6           0       -2.388699    2.237254   -0.759614
     11          6           0       -3.157301   -1.826744   -1.197680
     12          6           0       -2.009442   -2.231264    1.009931
     13          1           0       -0.209433   -1.577674   -1.279213
     14          1           0        1.066089    0.534949   -1.994342
     15          1           0        0.384048    2.120395   -1.583368
     16          1           0       -0.741815    1.005740    2.040919
     17          1           0       -0.630983    2.619265    1.308761
     18          1           0       -2.177628    2.056391    1.987322
     19          1           0       -3.298992    2.571735   -0.249646
     20          1           0       -1.736885    3.106930   -0.899869
     21          1           0       -2.665398    1.841468   -1.741586
     22          1           0       -3.259885   -1.148758   -2.052764
     23          1           0       -2.813784   -2.802133   -1.563776
     24          1           0       -4.139369   -1.952848   -0.731238
     25          1           0       -2.974551   -2.345814    1.514170
     26          1           0       -1.674377   -3.212213    0.654768
     27          1           0       -1.276209   -1.854650    1.727599
     28         16           0        2.754123   -0.530188    0.105576
     29          8           0        2.327632   -1.208490    1.348424
     30          8           0        2.498839   -1.169762   -1.208259
     31          6           0        4.510088   -0.182580    0.238546
     32          1           0        4.668952    0.430218    1.129487
     33          1           0        4.990013   -1.157987    0.350306
     34          1           0        4.830398    0.325114   -0.670695
 ---------------------------------------------------------------------
                    Distance matrix (angstroms):
                    1          2          3          4          5
     1  O    0.000000
     2  N    1.264269   0.000000
     3  C    2.404412   1.476704   0.000000
     4  C    3.504025   2.279508   1.499159   0.000000
     5  C    3.518448   2.294992   2.370740   1.337486   0.000000
     6  C    4.921968   3.742630   3.805360   2.505345   1.488794
     7  S    5.852473   4.805934   4.937217   3.730691   2.820729
     8  C    2.402418   1.479716   2.491945   2.364136   1.515480
     9  C    2.898387   2.453497   3.534062   3.457625   2.560702
    10  C    3.022981   2.456605   3.561022   3.456093   2.540334
    11  C    3.037623   2.462838   1.530728   2.522280   3.463380
    12  C    2.923199   2.460309   1.531900   2.530235   3.447279
    13  H    4.518022   3.330040   2.273546   1.087282   2.148928
    14  H    5.637125   4.395850   4.128992   2.672687   2.140951
    15  H    5.208215   4.131782   4.472060   3.331635   2.158374
    16  H    3.213394   2.737763   3.478152   3.389643   2.752780
    17  H    3.917456   3.413016   4.434521   4.070006   2.929854
    18  H    2.591488   2.655007   3.963021   4.235019   3.473182
    19  H    2.747928   2.673187   4.002944   4.245229   3.464947
    20  H    4.014369   3.417653   4.456269   4.067383   2.911233
    21  H    3.391957   2.733879   3.518873   3.388784   2.727013
    22  H    3.380361   2.725573   2.178605   2.726863   3.403835
    23  H    4.039176   3.416578   2.170421   2.858417   4.032707
    24  H    2.798253   2.708755   2.159410   3.452951   4.275757
    25  H    2.656192   2.693289   2.155651   3.454850   4.253753
    26  H    3.948360   3.413053   2.169500   2.871090   4.024914
    27  H    3.216116   2.729692   2.178230   2.731354   3.372834
    28  S    6.534108   5.428702   4.986535   3.739881   3.569257
    29  O    6.168032   5.225601   4.747318   3.853109   3.906432
    30  O    6.703840   5.496406   4.783682   3.402379   3.533669
    31  C    8.231970   7.154054   6.779838   5.511850   5.220727
    32  H    8.349555   7.363901   7.165306   5.994921   5.558054
    33  H    8.793633   7.724119   7.179584   5.969237   5.896185
    34  H    8.676441   7.540740   7.196608   5.817392   5.428460
                    6          7          8          9         10
     6  C    0.000000
     7  S    1.845240   0.000000
     8  C    2.645536   3.659556   0.000000
     9  C    3.305106   3.533774   1.530414   0.000000
    10  C    3.228624   4.477202   1.532514   2.515594   0.000000
    11  C    4.783098   6.189177   3.569258   4.824863   4.159174
    12  C    4.791357   5.491731   3.531759   4.068071   4.821076
    13  H    2.821517   3.942089   3.410691   4.429048   4.424122
    14  H    1.091565   2.392625   3.523074   4.335284   4.044497
    15  H    1.095680   2.346313   2.840803   3.474626   2.894884
    16  H    3.508327   3.384836   2.177147   1.092932   3.474455
    17  H    3.170251   3.104666   2.176410   1.095167   2.741108
    18  H    4.332179   4.604045   2.146899   1.094278   2.760964
    19  H    4.274739   5.371873   2.156004   2.761975   1.095709
    20  H    3.088009   4.145563   2.180952   2.748389   1.095842
    21  H    3.397449   4.957447   2.180077   3.475631   1.094293
    22  H    4.567292   6.181929   3.519909   4.953601   3.727771
    23  H    5.219798   6.580000   4.441249   5.665574   5.120820
    24  H    5.675828   7.014787   4.043297   5.157760   4.541212
    25  H    5.674704   6.389272   3.996266   4.430650   5.149546
    26  H    5.235812   5.936108   4.413621   5.037293   5.675158
    27  H    4.577160   4.917387   3.460236   3.612885   4.916049
    28  S    3.002832   2.139783   4.767007   4.821524   5.903889
    29  O    3.853111   2.990485   4.841718   4.664224   6.209731
    30  O    2.969500   2.951288   4.978561   5.460666   5.974702
    31  C    4.355306   3.045994   6.357456   6.220531   7.378698
    32  H    4.728496   3.106717   6.495568   6.100447   7.526255
    33  H    5.174023   4.020407   7.087704   6.995797   8.197864
    34  H    4.327189   3.174283   6.629478   6.619983   7.468571
                   11         12         13         14         15
    11  C    0.000000
    12  C    2.520866   0.000000
    13  H    2.959495   2.984526   0.000000
    14  H    4.904007   5.112385   2.569347   0.000000
    15  H    5.316937   5.602761   3.757718   1.774181   0.000000
    16  H    4.934173   3.626018   4.240370   4.446740   3.955437
    17  H    5.694868   5.051443   4.948698   4.258511   3.105410
    18  H    5.116907   4.400860   5.267872   5.356317   4.395009
    19  H    4.501718   5.130134   5.274749   5.123123   3.943007
    20  H    5.142705   5.676085   4.941915   3.958487   2.436961
    21  H    3.740800   4.958656   4.235102   3.961675   3.066261
    22  H    1.096064   3.480737   3.176099   4.642449   4.917920
    23  H    1.097002   2.756234   2.891871   5.135652   5.870076
    24  H    1.094499   2.765099   3.985653   5.906044   6.146441
    25  H    2.767122   1.094904   4.004860   6.077436   6.389206
    26  H    2.747754   1.095751   2.925416   5.345013   6.138654
    27  H    3.478008   1.092939   3.202444   5.004936   5.433225
    28  S    6.190676   5.138392   3.434754   2.897176   3.936417
    29  O    6.078600   4.468876   3.671168   3.975570   4.842974
    30  O    5.694177   5.135343   2.739738   2.361512   3.929145
    31  C    7.972131   6.877239   5.150122   4.166745   5.064313
    32  H    8.471117   7.190183   5.799319   4.769685   5.345716
    33  H    8.319989   7.111919   5.464953   4.874483   5.975098
    34  H    8.289243   7.492862   5.421328   3.995760   4.881192
                   16         17         18         19         20
    16  H    0.000000
    17  H    1.775332   0.000000
    18  H    1.779972   1.780276   0.000000
    19  H    3.773352   3.090172   2.554812   0.000000
    20  H    3.748786   2.517714   3.103830   1.774655   0.000000
    21  H    4.325038   3.748123   3.766811   1.777812   1.781016
    22  H    5.266952   5.692888   5.269398   4.134590   4.664716
    23  H    5.637976   6.512115   6.051467   5.553451   6.042972
    24  H    5.289751   6.113476   5.226183   4.627096   5.603724
    25  H    4.061464   5.494225   4.498707   5.234367   6.090305
    26  H    4.536763   5.960077   5.457761   6.075475   6.507870
    27  H    2.926701   4.539566   4.021971   5.253002   5.633213
    28  S    4.280912   4.777620   5.878225   6.810896   5.865893
    29  O    3.847580   4.838045   5.600447   6.964397   6.340187
    30  O    5.078563   5.521585   6.518370   6.966533   6.027152
    31  C    5.678304   5.952000   7.266137   8.294957   7.151331
    32  H    5.517095   5.737018   7.089145   8.365180   7.233106
    33  H    6.355607   6.839727   8.024159   9.109247   8.062482
    34  H    6.234233   6.245643   7.692516   8.444618   7.135841
                   21         22         23         24         25
    21  H    0.000000
    22  H    3.064588   0.000000
    23  H    4.649373   1.780945   0.000000
    24  H    4.194071   1.779462   1.780893   0.000000
    25  H    5.313083   3.773245   3.115738   2.559899   0.000000
    26  H    5.680170   3.755318   2.527519   3.095674   1.783163
    27  H    5.256080   4.327170   3.754332   3.775342   1.780775
    28  S    6.197416   6.419451   6.240998   7.088332   6.172385
    29  O    6.616703   6.541559   6.120030   6.833825   5.425322
    30  O    6.001774   5.820355   5.569110   6.701237   6.225168
    31  C    7.713967   8.158191   7.984330   8.881860   7.894721
    32  H    8.001711   8.688288   8.584468   9.312777   8.141098
    33  H    8.483988   8.592767   8.201596   9.227522   8.136325
    34  H    7.722247   8.338770   8.307273   9.254701   8.533740
                   26         27         28         29         30
    26  H    0.000000
    27  H    1.775523   0.000000
    28  S    5.206389   4.541887   0.000000
    29  O    4.529033   3.680892   1.478736   0.000000
    30  O    5.005817   4.831079   1.483370   2.562702   0.000000
    31  C    6.899241   6.204380   1.794972   2.654700   2.667001
    32  H    7.330108   6.397132   2.374309   2.866196   3.568527
    33  H    6.980447   6.453512   2.335215   2.843776   2.938573
    34  H    7.522076   6.913308   2.375933   3.562670   2.821311
                   31         32         33         34
    31  C    0.000000
    32  H    1.092948   0.000000
    33  H    1.092812   1.797943   0.000000
    34  H    1.089528   1.810460   1.807625   0.000000
 Stoichiometry    C10H18NO3S2(2)
 Framework group  C1[X(C10H18NO3S2)]
 Deg. of freedom    96
 Full point group                 C1      NOp   1
 Largest Abelian subgroup         C1      NOp   1
 Largest concise Abelian subgroup C1      NOp   1
                         Standard orientation:                         
 ---------------------------------------------------------------------
 Center     Atomic      Atomic             Coordinates (Angstroms)
 Number     Number       Type             X           Y           Z
 ---------------------------------------------------------------------
      1          8           0       -3.677770    0.176200    1.024785
      2          7           0       -2.640512    0.048757    0.313286
      3          6           0       -2.171730   -1.263584   -0.175240
      4          6           0       -0.863046   -0.861363   -0.786011
      5          6           0       -0.594758    0.441831   -0.649716
      6          6           0        0.613773    1.121241   -1.192268
      7         16           0        1.949302    1.447036    0.038640
      8          6           0       -1.699277    1.168651    0.090859
      9          6           0       -1.279202    1.748544    1.443422
     10          6           0       -2.383281    2.242330   -0.762342
     11          6           0       -3.158110   -1.819977   -1.205099
     12          6           0       -2.015393   -2.228209    1.004496
     13          1           0       -0.209653   -1.576006   -1.280527
     14          1           0        1.070995    0.534932   -1.991458
     15          1           0        0.390905    2.121252   -1.580624
     16          1           0       -0.744177    1.005774    2.040532
     17          1           0       -0.629054    2.619667    1.309849
     18          1           0       -2.178040    2.058978    1.984870
     19          1           0       -3.294009    2.578011   -0.253942
     20          1           0       -1.729667    3.110971   -0.900616
     21          1           0       -2.658701    1.847787   -1.745174
     22          1           0       -3.257792   -1.141153   -2.059861
     23          1           0       -2.815566   -2.795683   -1.571261
     24          1           0       -4.141331   -1.944721   -0.740725
     25          1           0       -2.981711   -2.341458    1.506709
     26          1           0       -1.681333   -3.209469    0.649245
     27          1           0       -1.282944   -1.853433    1.723924
     28         16           0        2.752945   -0.534779    0.111014
     29          8           0        2.322775   -1.213292    1.352479
     30          8           0        2.499180   -1.172891   -1.203825
     31          6           0        4.509245   -0.190348    0.247775
     32          1           0        4.667393    0.421483    1.139508
     33          1           0        4.987238   -1.166680    0.359741
     34          1           0        4.832267    0.317486   -0.660428
 ---------------------------------------------------------------------
 Rotational constants (GHZ):           0.7722900           0.2775165           0.2435387
 Leave Link  202 at Wed Jun 12 15:26:13 2019, MaxMem=  8053063680 cpu:               0.0 elap:               0.1
 (Enter /data2/g16/g16/l301.exe)
 General basis read from cards:  (6D, 7F)
 Centers:      13     14     15     16     17     18     19     20     21     22
 Centers:      23     24     25     26     27     32     33     34
 6-31G
 S 1 1.00 0.000000000000
     Exponent=  4.0000000000D-01 Coefficients=  1.0000000000D+00
 P 1 1.00 0.000000000000
     Exponent=  7.5000000000D-01 Coefficients=  1.0000000000D+00
 ****
 Centers:       3      4      5      6      8      9     10     11     12     31
 6-31G
 S 1 1.00 0.000000000000
     Exponent=  8.7000000000D+00 Coefficients=  1.0000000000D+00
 P 1 1.00 0.000000000000
     Exponent=  5.0000000000D-02 Coefficients=  1.0000000000D+00
 D 1 1.00
     Exponent=  8.2000000000D-01 Coefficients=  1.0000000000D+00
 ****
 Centers:       2
 6-31G
 S 1 1.00 0.000000000000
     Exponent=  1.3700000000D+01 Coefficients=  1.0000000000D+00
 P 1 1.00 0.000000000000
     Exponent=  5.3000000000D-02 Coefficients=  1.0000000000D+00
 D 1 1.00 0.000000000000
     Exponent=  1.0150000000D+00 Coefficients=  1.0000000000D+00
 ****
 Centers:       1     29     30
 6-31G
 S 1 1.00
     Exponent=  1.6000000000D+01 Coefficients=  1.0000000000D+00
 P 1 1.00 0.000000000000
     Exponent=  6.5000000000D-02 Coefficients=  1.0000000000D+00
 D 1 1.00 0.000000000000
     Exponent=  1.1900000000D+00 Coefficients=  1.0000000000D+00
 D 1 1.00 0.000000000000
     Exponent=  1.8000000000D-01 Coefficients=  1.0000000000D+00
 ****
 Centers:       7     28
 6-31G
 S 1 1.00 0.000000000000
     Exponent=  7.5000000000D+00 Coefficients=  1.0000000000D+00
 P 1 1.00 0.000000000000
     Exponent=  4.1000000000D-02 Coefficients=  1.0000000000D+00
 D 1 1.00 0.000000000000
     Exponent=  4.7900000000D-01 Coefficients=  1.0000000000D+00
 ****
 Ernie: Thresh=  0.10000D-02 Tol=  0.10000D-05 Strict=F.
 There are   438 symmetry adapted cartesian basis functions of A   symmetry.
 There are   438 symmetry adapted basis functions of A   symmetry.
   438 basis functions,   722 primitive gaussians,   438 cartesian basis functions
    71 alpha electrons       70 beta electrons
       nuclear repulsion energy      1521.1871146744 Hartrees.
 IExCor= 1009 DFT=T Ex+Corr=PBE1PBE ExCW=0 ScaHFX=  0.250000
 ScaDFX=  0.750000  0.750000  1.000000  1.000000 ScalE2=  1.000000  1.000000
 IRadAn=      5 IRanWt=     -1 IRanGd=            0 ICorTp=0 IEmpDi=  4
 NAtoms=   34 NActive=   34 NUniq=   34 SFac= 1.00D+00 NAtFMM=   60 NAOKFM=F Big=F
 Integral buffers will be    131072 words long.
 Raffenetti 2 integral format.
 Two-electron integral symmetry is turned on.
 Leave Link  301 at Wed Jun 12 15:26:13 2019, MaxMem=  8053063680 cpu:               0.0 elap:               0.2
 (Enter /data2/g16/g16/l302.exe)
 NPDir=0 NMtPBC=     1 NCelOv=     1 NCel=       1 NClECP=     1 NCelD=      1
         NCelK=      1 NCelE2=     1 NClLst=     1 CellRange=     0.0.
 One-electron integrals computed using PRISM.
 One-electron integral symmetry used in STVInt
 NBasis=   438 RedAO= T EigKep=  6.64D-05  NBF=   438
 NBsUse=   438 1.00D-06 EigRej= -1.00D+00 NBFU=   438
 Precomputing XC quadrature grid using
 IXCGrd= 4 IRadAn=           5 IRanWt=          -1 IRanGd=           0 AccXCQ= 0.00D+00.
 Generated NRdTot=       0 NPtTot=           0 NUsed=           0 NTot=          32
 NSgBfM=   433   433   433   433   433 MxSgAt=    34 MxSgA2=    34.
 Leave Link  302 at Wed Jun 12 15:26:14 2019, MaxMem=  8053063680 cpu:               0.0 elap:               0.5
 (Enter /data2/g16/g16/l303.exe)
 DipDrv:  MaxL=1.
 Leave Link  303 at Wed Jun 12 15:26:14 2019, MaxMem=  8053063680 cpu:               0.0 elap:               0.1
 (Enter /data2/g16/g16/l401.exe)
 ExpMin= 4.10D-02 ExpMax= 2.19D+04 ExpMxC= 3.30D+03 IAcc=3 IRadAn=         5 AccDes= 0.00D+00
 Harris functional with IExCor= 1009 and IRadAn=       5 diagonalized for initial guess.
 HarFok:  IExCor= 1009 AccDes= 0.00D+00 IRadAn=         5 IDoV= 1 UseB2=F ITyADJ=14
 ICtDFT=  3500011 ScaDFX=  1.000000  1.000000  1.000000  1.000000
 FoFCou: FMM=F IPFlag=           0 FMFlag=      100000 FMFlg1=           0
         NFxFlg=           0 DoJE=T BraDBF=F KetDBF=T FulRan=T
         wScrn=  0.000000 ICntrl=       500 IOpCl=  0 I1Cent=   200000004 NGrid=           0
         NMat0=    1 NMatS0=      1 NMatT0=    0 NMatD0=    1 NMtDS0=    0 NMtDT0=    0
 Petite list used in FoFCou.
 Harris En= -1467.69878744864    
 JPrj=0 DoOrth=F DoCkMO=F.
 Initial guess <Sx>= 0.0000 <Sy>= 0.0000 <Sz>= 0.5000 <S**2>= 0.7500 S= 0.5000
 Leave Link  401 at Wed Jun 12 15:26:16 2019, MaxMem=  8053063680 cpu:               0.0 elap:               1.6
 (Enter /data2/g16/g16/l502.exe)
 Integral symmetry usage will be decided dynamically.
 UHF open shell SCF:
 Using DIIS extrapolation, IDIIS=  1040.
 NGot=  8053063680 LenX=  8052670277 LenY=  8052477992
 Requested convergence on RMS density matrix=1.00D-08 within 128 cycles.
 Requested convergence on MAX density matrix=1.00D-06.
 Requested convergence on             energy=1.00D-06.
 No special actions if energy rises.
 Fock matrices will be formed incrementally for  20 cycles.

 Cycle   1  Pass 1  IDiag  1:
 FoFJK:  IHMeth= 1 ICntrl=       0 DoSepK=F KAlg= 0 I1Cent=           0 FoldK=F
 IRaf= 840000000 NMat=       1 IRICut=       1 DoRegI=T DoRafI=F ISym2E= 0 IDoP0=0 IntGTp=1.
 FoFCou: FMM=F IPFlag=           0 FMFlag=      100000 FMFlg1=           0
         NFxFlg=           0 DoJE=F BraDBF=F KetDBF=F FulRan=T
         wScrn=  0.000000 ICntrl=         0 IOpCl=  1 I1Cent=           0 NGrid=           0
         NMat0=    1 NMatS0=      1 NMatT0=    0 NMatD0=    1 NMtDS0=    0 NMtDT0=    0
 Symmetry not used in FoFCou.
 E= -1466.93579126214    
 DIIS: error= 2.55D-02 at cycle   1 NSaved=   1.
 NSaved= 1 IEnMin= 1 EnMin= -1466.93579126214     IErMin= 1 ErrMin= 2.55D-02
 ErrMax= 2.55D-02  0.00D+00 EMaxC= 1.00D-01 BMatC= 2.97D+00 BMatP= 2.97D+00
 IDIUse=3 WtCom= 7.45D-01 WtEn= 2.55D-01
 Coeff-Com:  0.100D+01
 Coeff-En:   0.100D+01
 Coeff:      0.100D+01
 Gap=     0.224 Goal=   None    Shift=    0.000
 Gap=     0.365 Goal=   None    Shift=    0.000
 GapD=    0.224 DampG=1.000 DampE=0.500 DampFc=0.5000 IDamp=-1.
 Damping current iteration by 5.00D-01
 RMSDP=4.75D-03 MaxDP=4.12D-01              OVMax= 3.10D-01

 Cycle   2  Pass 1  IDiag  1:
 RMSU=  2.37D-03    CP:  9.92D-01
 E= -1467.06255587551     Delta-E=       -0.126764613374 Rises=F Damp=T
 DIIS: error= 1.05D-02 at cycle   2 NSaved=   2.
 NSaved= 2 IEnMin= 2 EnMin= -1467.06255587551     IErMin= 2 ErrMin= 1.05D-02
 ErrMax= 1.05D-02  0.00D+00 EMaxC= 1.00D-01 BMatC= 5.21D-01 BMatP= 2.97D+00
 IDIUse=3 WtCom= 8.95D-01 WtEn= 1.05D-01
 Coeff-Com:  0.226D+00 0.774D+00
 Coeff-En:   0.395D+00 0.605D+00
 Coeff:      0.244D+00 0.756D+00
 Gap=     0.127 Goal=   None    Shift=    0.000
 Gap=     0.185 Goal=   None    Shift=    0.000
 RMSDP=1.68D-03 MaxDP=1.19D-01 DE=-1.27D-01 OVMax= 2.88D-01

 Cycle   3  Pass 1  IDiag  1:
 RMSU=  1.39D-03    CP:  9.82D-01  6.10D-01
 E= -1467.46643091579     Delta-E=       -0.403875040278 Rises=F Damp=F
 DIIS: error= 9.77D-03 at cycle   3 NSaved=   3.
 NSaved= 3 IEnMin= 3 EnMin= -1467.46643091579     IErMin= 3 ErrMin= 9.77D-03
 ErrMax= 9.77D-03  0.00D+00 EMaxC= 1.00D-01 BMatC= 3.54D-01 BMatP= 5.21D-01
 IDIUse=3 WtCom= 9.02D-01 WtEn= 9.77D-02
 Coeff-Com:  0.530D-01 0.446D+00 0.501D+00
 Coeff-En:   0.000D+00 0.000D+00 0.100D+01
 Coeff:      0.478D-01 0.402D+00 0.550D+00
 Gap=     0.144 Goal=   None    Shift=    0.000
 Gap=     0.223 Goal=   None    Shift=    0.000
 RMSDP=9.50D-04 MaxDP=6.57D-02 DE=-4.04D-01 OVMax= 1.09D-01

 Cycle   4  Pass 1  IDiag  1:
 RMSU=  6.29D-04    CP:  9.87D-01  7.40D-01  5.41D-01
 E= -1467.53761192881     Delta-E=       -0.071181013017 Rises=F Damp=F
 DIIS: error= 3.02D-03 at cycle   4 NSaved=   4.
 NSaved= 4 IEnMin= 4 EnMin= -1467.53761192881     IErMin= 4 ErrMin= 3.02D-03
 ErrMax= 3.02D-03  0.00D+00 EMaxC= 1.00D-01 BMatC= 4.77D-02 BMatP= 3.54D-01
 IDIUse=3 WtCom= 9.70D-01 WtEn= 3.02D-02
 Coeff-Com: -0.114D-01 0.657D-01 0.287D+00 0.658D+00
 Coeff-En:   0.000D+00 0.000D+00 0.111D+00 0.889D+00
 Coeff:     -0.110D-01 0.637D-01 0.282D+00 0.665D+00
 Gap=     0.144 Goal=   None    Shift=    0.000
 Gap=     0.202 Goal=   None    Shift=    0.000
 RMSDP=3.22D-04 MaxDP=1.87D-02 DE=-7.12D-02 OVMax= 3.38D-02

 Cycle   5  Pass 1  IDiag  1:
 RMSU=  2.01D-04    CP:  9.86D-01  7.23D-01  6.56D-01  7.01D-01
 E= -1467.54758633884     Delta-E=       -0.009974410029 Rises=F Damp=F
 DIIS: error= 7.96D-04 at cycle   5 NSaved=   5.
 NSaved= 5 IEnMin= 5 EnMin= -1467.54758633884     IErMin= 5 ErrMin= 7.96D-04
 ErrMax= 7.96D-04  0.00D+00 EMaxC= 1.00D-01 BMatC= 4.02D-03 BMatP= 4.77D-02
 IDIUse=3 WtCom= 9.92D-01 WtEn= 7.96D-03
 Coeff-Com: -0.836D-02 0.146D-01 0.131D+00 0.370D+00 0.493D+00
 Coeff-En:   0.000D+00 0.000D+00 0.000D+00 0.000D+00 0.100D+01
 Coeff:     -0.830D-02 0.144D-01 0.130D+00 0.367D+00 0.497D+00
 Gap=     0.144 Goal=   None    Shift=    0.000
 Gap=     0.205 Goal=   None    Shift=    0.000
 RMSDP=1.09D-04 MaxDP=5.48D-03 DE=-9.97D-03 OVMax= 1.25D-02

 Cycle   6  Pass 1  IDiag  1:
 RMSU=  6.94D-05    CP:  9.85D-01  7.25D-01  6.52D-01  7.57D-01  6.24D-01
 E= -1467.54845610526     Delta-E=       -0.000869766419 Rises=F Damp=F
 DIIS: error= 2.44D-04 at cycle   6 NSaved=   6.
 NSaved= 6 IEnMin= 6 EnMin= -1467.54845610526     IErMin= 6 ErrMin= 2.44D-04
 ErrMax= 2.44D-04  0.00D+00 EMaxC= 1.00D-01 BMatC= 4.08D-04 BMatP= 4.02D-03
 IDIUse=3 WtCom= 9.98D-01 WtEn= 2.44D-03
 Coeff-Com: -0.278D-02 0.962D-03 0.366D-01 0.116D+00 0.272D+00 0.577D+00
 Coeff-En:   0.000D+00 0.000D+00 0.000D+00 0.000D+00 0.430D-01 0.957D+00
 Coeff:     -0.277D-02 0.959D-03 0.365D-01 0.115D+00 0.272D+00 0.578D+00
 Gap=     0.146 Goal=   None    Shift=    0.000
 Gap=     0.205 Goal=   None    Shift=    0.000
 RMSDP=3.59D-05 MaxDP=2.21D-03 DE=-8.70D-04 OVMax= 5.18D-03

 Cycle   7  Pass 1  IDiag  1:
 RMSU=  2.55D-05    CP:  9.85D-01  7.22D-01  6.58D-01  7.59D-01  6.71D-01
                    CP:  7.00D-01
 E= -1467.54855055247     Delta-E=       -0.000094447211 Rises=F Damp=F
 DIIS: error= 1.21D-04 at cycle   7 NSaved=   7.
 NSaved= 7 IEnMin= 7 EnMin= -1467.54855055247     IErMin= 7 ErrMin= 1.21D-04
 ErrMax= 1.21D-04  0.00D+00 EMaxC= 1.00D-01 BMatC= 6.70D-05 BMatP= 4.08D-04
 IDIUse=3 WtCom= 9.99D-01 WtEn= 1.21D-03
 Coeff-Com: -0.212D-04-0.244D-02-0.269D-02-0.165D-03 0.593D-01 0.329D+00
 Coeff-Com:  0.617D+00
 Coeff-En:   0.000D+00 0.000D+00 0.000D+00 0.000D+00 0.000D+00 0.697D-01
 Coeff-En:   0.930D+00
 Coeff:     -0.212D-04-0.244D-02-0.269D-02-0.164D-03 0.592D-01 0.328D+00
 Coeff:      0.618D+00
 Gap=     0.146 Goal=   None    Shift=    0.000
 Gap=     0.206 Goal=   None    Shift=    0.000
 RMSDP=1.50D-05 MaxDP=9.16D-04 DE=-9.44D-05 OVMax= 1.17D-03

 Cycle   8  Pass 1  IDiag  1:
 RMSU=  1.04D-05    CP:  9.85D-01  7.22D-01  6.58D-01  7.59D-01  7.05D-01
                    CP:  7.97D-01  8.09D-01
 E= -1467.54856681192     Delta-E=       -0.000016259446 Rises=F Damp=F
 DIIS: error= 3.12D-05 at cycle   8 NSaved=   8.
 NSaved= 8 IEnMin= 8 EnMin= -1467.54856681192     IErMin= 8 ErrMin= 3.12D-05
 ErrMax= 3.12D-05  0.00D+00 EMaxC= 1.00D-01 BMatC= 4.65D-06 BMatP= 6.70D-05
 IDIUse=1 WtCom= 1.00D+00 WtEn= 0.00D+00
 Coeff-Com:  0.409D-03-0.108D-02-0.537D-02-0.143D-01-0.165D-01 0.631D-01
 Coeff-Com:  0.211D+00 0.763D+00
 Coeff:      0.409D-03-0.108D-02-0.537D-02-0.143D-01-0.165D-01 0.631D-01
 Coeff:      0.211D+00 0.763D+00
 Gap=     0.146 Goal=   None    Shift=    0.000
 Gap=     0.205 Goal=   None    Shift=    0.000
 RMSDP=4.95D-06 MaxDP=5.44D-04 DE=-1.63D-05 OVMax= 1.23D-03

 Cycle   9  Pass 1  IDiag  1:
 RMSU=  4.04D-06    CP:  9.85D-01  7.22D-01  6.57D-01  7.61D-01  7.04D-01
                    CP:  8.26D-01  8.47D-01  9.22D-01
 E= -1467.54856828090     Delta-E=       -0.000001468981 Rises=F Damp=F
 DIIS: error= 2.45D-05 at cycle   9 NSaved=   9.
 NSaved= 9 IEnMin= 9 EnMin= -1467.54856828090     IErMin= 9 ErrMin= 2.45D-05
 ErrMax= 2.45D-05  0.00D+00 EMaxC= 1.00D-01 BMatC= 2.74D-06 BMatP= 4.65D-06
 IDIUse=1 WtCom= 1.00D+00 WtEn= 0.00D+00
 Coeff-Com:  0.308D-03-0.302D-03-0.286D-02-0.922D-02-0.253D-01-0.283D-01
 Coeff-Com: -0.149D-01 0.478D+00 0.602D+00
 Coeff:      0.308D-03-0.302D-03-0.286D-02-0.922D-02-0.253D-01-0.283D-01
 Coeff:     -0.149D-01 0.478D+00 0.602D+00
 Gap=     0.146 Goal=   None    Shift=    0.000
 Gap=     0.205 Goal=   None    Shift=    0.000
 RMSDP=3.37D-06 MaxDP=2.46D-04 DE=-1.47D-06 OVMax= 2.77D-04

 Cycle  10  Pass 1  IDiag  1:
 RMSU=  2.25D-06    CP:  9.85D-01  7.22D-01  6.57D-01  7.60D-01  7.09D-01
                    CP:  8.44D-01  8.89D-01  1.06D+00  8.81D-01
 E= -1467.54856890415     Delta-E=       -0.000000623254 Rises=F Damp=F
 DIIS: error= 1.31D-05 at cycle  10 NSaved=  10.
 NSaved=10 IEnMin=10 EnMin= -1467.54856890415     IErMin=10 ErrMin= 1.31D-05
 ErrMax= 1.31D-05  0.00D+00 EMaxC= 1.00D-01 BMatC= 4.98D-07 BMatP= 2.74D-06
 IDIUse=1 WtCom= 1.00D+00 WtEn= 0.00D+00
 Coeff-Com:  0.933D-04 0.995D-04-0.126D-03-0.148D-02-0.116D-01-0.306D-01
 Coeff-Com: -0.697D-01 0.107D+00 0.351D+00 0.655D+00
 Coeff:      0.933D-04 0.995D-04-0.126D-03-0.148D-02-0.116D-01-0.306D-01
 Coeff:     -0.697D-01 0.107D+00 0.351D+00 0.655D+00
 Gap=     0.146 Goal=   None    Shift=    0.000
 Gap=     0.205 Goal=   None    Shift=    0.000
 RMSDP=1.51D-06 MaxDP=1.19D-04 DE=-6.23D-07 OVMax= 3.01D-04

 Cycle  11  Pass 1  IDiag  1:
 RMSU=  9.31D-07    CP:  9.85D-01  7.22D-01  6.57D-01  7.60D-01  7.09D-01
                    CP:  8.50D-01  8.95D-01  1.15D+00  9.98D-01  8.38D-01
 E= -1467.54856905188     Delta-E=       -0.000000147727 Rises=F Damp=F
 DIIS: error= 6.35D-06 at cycle  11 NSaved=  11.
 NSaved=11 IEnMin=11 EnMin= -1467.54856905188     IErMin=11 ErrMin= 6.35D-06
 ErrMax= 6.35D-06  0.00D+00 EMaxC= 1.00D-01 BMatC= 1.04D-07 BMatP= 4.98D-07
 IDIUse=1 WtCom= 1.00D+00 WtEn= 0.00D+00
 Coeff-Com:  0.899D-06 0.762D-04 0.446D-03 0.869D-03-0.192D-02-0.100D-01
 Coeff-Com: -0.359D-01-0.234D-01 0.590D-01 0.361D+00 0.650D+00
 Coeff:      0.899D-06 0.762D-04 0.446D-03 0.869D-03-0.192D-02-0.100D-01
 Coeff:     -0.359D-01-0.234D-01 0.590D-01 0.361D+00 0.650D+00
 Gap=     0.146 Goal=   None    Shift=    0.000
 Gap=     0.205 Goal=   None    Shift=    0.000
 RMSDP=6.47D-07 MaxDP=4.14D-05 DE=-1.48D-07 OVMax= 1.04D-04

 Cycle  12  Pass 1  IDiag  1:
 RMSU=  4.35D-07    CP:  9.85D-01  7.22D-01  6.57D-01  7.60D-01  7.08D-01
                    CP:  8.52D-01  8.93D-01  1.16D+00  1.05D+00  9.86D-01
                    CP:  8.11D-01
 E= -1467.54856907740     Delta-E=       -0.000000025526 Rises=F Damp=F
 DIIS: error= 2.41D-06 at cycle  12 NSaved=  12.
 NSaved=12 IEnMin=12 EnMin= -1467.54856907740     IErMin=12 ErrMin= 2.41D-06
 ErrMax= 2.41D-06  0.00D+00 EMaxC= 1.00D-01 BMatC= 2.38D-08 BMatP= 1.04D-07
 IDIUse=1 WtCom= 1.00D+00 WtEn= 0.00D+00
 Coeff-Com: -0.110D-04 0.224D-04 0.297D-03 0.757D-03 0.582D-03-0.117D-02
 Coeff-Com: -0.115D-01-0.328D-01-0.303D-01 0.114D+00 0.400D+00 0.559D+00
 Coeff:     -0.110D-04 0.224D-04 0.297D-03 0.757D-03 0.582D-03-0.117D-02
 Coeff:     -0.115D-01-0.328D-01-0.303D-01 0.114D+00 0.400D+00 0.559D+00
 Gap=     0.146 Goal=   None    Shift=    0.000
 Gap=     0.205 Goal=   None    Shift=    0.000
 RMSDP=2.87D-07 MaxDP=1.96D-05 DE=-2.55D-08 OVMax= 2.39D-05

 Cycle  13  Pass 1  IDiag  1:
 RMSU=  1.85D-07    CP:  9.85D-01  7.22D-01  6.57D-01  7.60D-01  7.08D-01
                    CP:  8.53D-01  8.93D-01  1.16D+00  1.07D+00  1.05D+00
                    CP:  9.19D-01  8.32D-01
 E= -1467.54856908270     Delta-E=       -0.000000005293 Rises=F Damp=F
 DIIS: error= 1.13D-06 at cycle  13 NSaved=  13.
 NSaved=13 IEnMin=13 EnMin= -1467.54856908270     IErMin=13 ErrMin= 1.13D-06
 ErrMax= 1.13D-06  0.00D+00 EMaxC= 1.00D-01 BMatC= 4.44D-09 BMatP= 2.38D-08
 IDIUse=1 WtCom= 1.00D+00 WtEn= 0.00D+00
 Coeff-Com: -0.352D-05-0.103D-04 0.605D-04 0.203D-03 0.875D-03 0.266D-02
 Coeff-Com:  0.362D-02-0.992D-02-0.356D-01-0.289D-01 0.634D-01 0.331D+00
 Coeff-Com:  0.672D+00
 Coeff:     -0.352D-05-0.103D-04 0.605D-04 0.203D-03 0.875D-03 0.266D-02
 Coeff:      0.362D-02-0.992D-02-0.356D-01-0.289D-01 0.634D-01 0.331D+00
 Coeff:      0.672D+00
 Gap=     0.146 Goal=   None    Shift=    0.000
 Gap=     0.205 Goal=   None    Shift=    0.000
 RMSDP=1.23D-07 MaxDP=1.18D-05 DE=-5.29D-09 OVMax= 2.00D-05

 Cycle  14  Pass 1  IDiag  1:
 RMSU=  1.01D-07    CP:  9.85D-01  7.22D-01  6.57D-01  7.60D-01  7.08D-01
                    CP:  8.53D-01  8.93D-01  1.17D+00  1.07D+00  1.06D+00
                    CP:  9.50D-01  8.61D-01  8.40D-01
 E= -1467.54856908385     Delta-E=       -0.000000001157 Rises=F Damp=F
 DIIS: error= 5.40D-07 at cycle  14 NSaved=  14.
 NSaved=14 IEnMin=14 EnMin= -1467.54856908385     IErMin=14 ErrMin= 5.40D-07
 ErrMax= 5.40D-07  0.00D+00 EMaxC= 1.00D-01 BMatC= 8.75D-10 BMatP= 4.44D-09
 IDIUse=1 WtCom= 1.00D+00 WtEn= 0.00D+00
 Coeff-Com:  0.509D-06-0.116D-04-0.272D-04-0.430D-04 0.337D-03 0.163D-02
 Coeff-Com:  0.408D-02 0.157D-02-0.136D-01-0.392D-01-0.556D-01 0.435D-01
 Coeff-Com:  0.368D+00 0.689D+00
 Coeff:      0.509D-06-0.116D-04-0.272D-04-0.430D-04 0.337D-03 0.163D-02
 Coeff:      0.408D-02 0.157D-02-0.136D-01-0.392D-01-0.556D-01 0.435D-01
 Coeff:      0.368D+00 0.689D+00
 Gap=     0.146 Goal=   None    Shift=    0.000
 Gap=     0.205 Goal=   None    Shift=    0.000
 RMSDP=7.22D-08 MaxDP=4.68D-06 DE=-1.16D-09 OVMax= 5.83D-06

 Cycle  15  Pass 1  IDiag  1:
 RMSU=  3.41D-08    CP:  9.85D-01  7.22D-01  6.57D-01  7.60D-01  7.08D-01
                    CP:  8.53D-01  8.93D-01  1.17D+00  1.07D+00  1.07D+00
                    CP:  9.75D-01  9.45D-01  9.75D-01  7.83D-01
 E= -1467.54856908395     Delta-E=       -0.000000000098 Rises=F Damp=F
 DIIS: error= 1.29D-07 at cycle  15 NSaved=  15.
 NSaved=15 IEnMin=15 EnMin= -1467.54856908395     IErMin=15 ErrMin= 1.29D-07
 ErrMax= 1.29D-07  0.00D+00 EMaxC= 1.00D-01 BMatC= 5.74D-11 BMatP= 8.75D-10
 IDIUse=1 WtCom= 1.00D+00 WtEn= 0.00D+00
 Coeff-Com:  0.676D-06-0.206D-05-0.198D-04-0.467D-04-0.838D-05 0.221D-03
 Coeff-Com:  0.875D-03 0.215D-02 0.107D-03-0.842D-02-0.290D-01-0.339D-01
 Coeff-Com:  0.397D-01 0.224D+00 0.804D+00
 Coeff:      0.676D-06-0.206D-05-0.198D-04-0.467D-04-0.838D-05 0.221D-03
 Coeff:      0.875D-03 0.215D-02 0.107D-03-0.842D-02-0.290D-01-0.339D-01
 Coeff:      0.397D-01 0.224D+00 0.804D+00
 Gap=     0.146 Goal=   None    Shift=    0.000
 Gap=     0.205 Goal=   None    Shift=    0.000
 RMSDP=1.98D-08 MaxDP=1.20D-06 DE=-9.78D-11 OVMax= 1.83D-06

 Cycle  16  Pass 1  IDiag  1:
 RMSU=  1.35D-08    CP:  9.85D-01  7.22D-01  6.57D-01  7.60D-01  7.08D-01
                    CP:  8.53D-01  8.93D-01  1.17D+00  1.07D+00  1.07D+00
                    CP:  9.73D-01  9.53D-01  1.01D+00  8.73D-01  9.05D-01
 E= -1467.54856908409     Delta-E=       -0.000000000134 Rises=F Damp=F
 DIIS: error= 4.52D-08 at cycle  16 NSaved=  16.
 NSaved=16 IEnMin=16 EnMin= -1467.54856908409     IErMin=16 ErrMin= 4.52D-08
 ErrMax= 4.52D-08  0.00D+00 EMaxC= 1.00D-01 BMatC= 1.08D-11 BMatP= 5.74D-11
 IDIUse=1 WtCom= 1.00D+00 WtEn= 0.00D+00
 Coeff-Com:  0.643D-07 0.106D-05-0.410D-05-0.111D-04-0.524D-04-0.144D-03
 Coeff-Com: -0.246D-03 0.636D-03 0.193D-02 0.252D-02-0.356D-02-0.205D-01
 Coeff-Com: -0.338D-01-0.173D-01 0.322D+00 0.749D+00
 Coeff:      0.643D-07 0.106D-05-0.410D-05-0.111D-04-0.524D-04-0.144D-03
 Coeff:     -0.246D-03 0.636D-03 0.193D-02 0.252D-02-0.356D-02-0.205D-01
 Coeff:     -0.338D-01-0.173D-01 0.322D+00 0.749D+00
 Gap=     0.146 Goal=   None    Shift=    0.000
 Gap=     0.205 Goal=   None    Shift=    0.000
 RMSDP=7.97D-09 MaxDP=4.23D-07 DE=-1.34D-10 OVMax= 8.49D-07

 SCF Done:  E(UPBE1PBE) =  -1467.54856908     A.U. after   16 cycles
            NFock= 16  Conv=0.80D-08     -V/T= 2.0052
 <Sx>= 0.0000 <Sy>= 0.0000 <Sz>= 0.5000 <S**2>= 0.7550 S= 0.5025
 <L.S>=  0.00000000000    
 KE= 1.459900704946D+03 PE=-6.497786993140D+03 EE= 2.049150604436D+03
 Annihilation of the first spin contaminant:
 S**2 before annihilation     0.7550,   after     0.7500
 Leave Link  502 at Wed Jun 12 15:29:13 2019, MaxMem=  8053063680 cpu:               0.0 elap:             177.2
 (Enter /data2/g16/g16/l601.exe)
 Copying SCF densities to generalized density rwf, IOpCl= 1 IROHF=0.

 **********************************************************************

            Population analysis using the SCF Density.

 **********************************************************************

 Orbital symmetries:
 Alpha Orbitals:
       Occupied  (A) (A) (A) (A) (A) (A) (A) (A) (A) (A) (A) (A)
                 (A) (A) (A) (A) (A) (A) (A) (A) (A) (A) (A) (A)
                 (A) (A) (A) (A) (A) (A) (A) (A) (A) (A) (A) (A)
                 (A) (A) (A) (A) (A) (A) (A) (A) (A) (A) (A) (A)
                 (A) (A) (A) (A) (A) (A) (A) (A) (A) (A) (A) (A)
                 (A) (A) (A) (A) (A) (A) (A) (A) (A) (A) (A)
       Virtual   (A) (A) (A) (A) (A) (A) (A) (A) (A) (A) (A) (A)
                 (A) (A) (A) (A) (A) (A) (A) (A) (A) (A) (A) (A)
                 (A) (A) (A) (A) (A) (A) (A) (A) (A) (A) (A) (A)
                 (A) (A) (A) (A) (A) (A) (A) (A) (A) (A) (A) (A)
                 (A) (A) (A) (A) (A) (A) (A) (A) (A) (A) (A) (A)
                 (A) (A) (A) (A) (A) (A) (A) (A) (A) (A) (A) (A)
                 (A) (A) (A) (A) (A) (A) (A) (A) (A) (A) (A) (A)
                 (A) (A) (A) (A) (A) (A) (A) (A) (A) (A) (A) (A)
                 (A) (A) (A) (A) (A) (A) (A) (A) (A) (A) (A) (A)
                 (A) (A) (A) (A) (A) (A) (A) (A) (A) (A) (A) (A)
                 (A) (A) (A) (A) (A) (A) (A) (A) (A) (A) (A) (A)
                 (A) (A) (A) (A) (A) (A) (A) (A) (A) (A) (A) (A)
                 (A) (A) (A) (A) (A) (A) (A) (A) (A) (A) (A) (A)
                 (A) (A) (A) (A) (A) (A) (A) (A) (A) (A) (A) (A)
                 (A) (A) (A) (A) (A) (A) (A) (A) (A) (A) (A) (A)
                 (A) (A) (A) (A) (A) (A) (A) (A) (A) (A) (A) (A)
                 (A) (A) (A) (A) (A) (A) (A) (A) (A) (A) (A) (A)
                 (A) (A) (A) (A) (A) (A) (A) (A) (A) (A) (A) (A)
                 (A) (A) (A) (A) (A) (A) (A) (A) (A) (A) (A) (A)
                 (A) (A) (A) (A) (A) (A) (A) (A) (A) (A) (A) (A)
                 (A) (A) (A) (A) (A) (A) (A) (A) (A) (A) (A) (A)
                 (A) (A) (A) (A) (A) (A) (A) (A) (A) (A) (A) (A)
                 (A) (A) (A) (A) (A) (A) (A) (A) (A) (A) (A) (A)
                 (A) (A) (A) (A) (A) (A) (A) (A) (A) (A) (A) (A)
                 (A) (A) (A) (A) (A) (A) (A) (A) (A) (A) (A) (A)
                 (A) (A) (A) (A) (A) (A) (A) (A) (A) (A) (A) (A)
                 (A) (A) (A) (A) (A) (A) (A) (A) (A) (A) (A) (A)
                 (A) (A) (A) (A) (A) (A) (A) (A) (A) (A) (A) (A)
                 (A) (A) (A) (A) (A) (A) (A) (A) (A) (A) (A) (A)
                 (A) (A) (A) (A) (A) (A) (A) (A) (A) (A) (A) (A)
                 (A) (A) (A) (A) (A) (A) (A)
 Beta  Orbitals:
       Occupied  (A) (A) (A) (A) (A) (A) (A) (A) (A) (A) (A) (A)
                 (A) (A) (A) (A) (A) (A) (A) (A) (A) (A) (A) (A)
                 (A) (A) (A) (A) (A) (A) (A) (A) (A) (A) (A) (A)
                 (A) (A) (A) (A) (A) (A) (A) (A) (A) (A) (A) (A)
                 (A) (A) (A) (A) (A) (A) (A) (A) (A) (A) (A) (A)
                 (A) (A) (A) (A) (A) (A) (A) (A) (A) (A)
       Virtual   (A) (A) (A) (A) (A) (A) (A) (A) (A) (A) (A) (A)
                 (A) (A) (A) (A) (A) (A) (A) (A) (A) (A) (A) (A)
                 (A) (A) (A) (A) (A) (A) (A) (A) (A) (A) (A) (A)
                 (A) (A) (A) (A) (A) (A) (A) (A) (A) (A) (A) (A)
                 (A) (A) (A) (A) (A) (A) (A) (A) (A) (A) (A) (A)
                 (A) (A) (A) (A) (A) (A) (A) (A) (A) (A) (A) (A)
                 (A) (A) (A) (A) (A) (A) (A) (A) (A) (A) (A) (A)
                 (A) (A) (A) (A) (A) (A) (A) (A) (A) (A) (A) (A)
                 (A) (A) (A) (A) (A) (A) (A) (A) (A) (A) (A) (A)
                 (A) (A) (A) (A) (A) (A) (A) (A) (A) (A) (A) (A)
                 (A) (A) (A) (A) (A) (A) (A) (A) (A) (A) (A) (A)
                 (A) (A) (A) (A) (A) (A) (A) (A) (A) (A) (A) (A)
                 (A) (A) (A) (A) (A) (A) (A) (A) (A) (A) (A) (A)
                 (A) (A) (A) (A) (A) (A) (A) (A) (A) (A) (A) (A)
                 (A) (A) (A) (A) (A) (A) (A) (A) (A) (A) (A) (A)
                 (A) (A) (A) (A) (A) (A) (A) (A) (A) (A) (A) (A)
                 (A) (A) (A) (A) (A) (A) (A) (A) (A) (A) (A) (A)
                 (A) (A) (A) (A) (A) (A) (A) (A) (A) (A) (A) (A)
                 (A) (A) (A) (A) (A) (A) (A) (A) (A) (A) (A) (A)
                 (A) (A) (A) (A) (A) (A) (A) (A) (A) (A) (A) (A)
                 (A) (A) (A) (A) (A) (A) (A) (A) (A) (A) (A) (A)
                 (A) (A) (A) (A) (A) (A) (A) (A) (A) (A) (A) (A)
                 (A) (A) (A) (A) (A) (A) (A) (A) (A) (A) (A) (A)
                 (A) (A) (A) (A) (A) (A) (A) (A) (A) (A) (A) (A)
                 (A) (A) (A) (A) (A) (A) (A) (A) (A) (A) (A) (A)
                 (A) (A) (A) (A) (A) (A) (A) (A) (A) (A) (A) (A)
                 (A) (A) (A) (A) (A) (A) (A) (A) (A) (A) (A) (A)
                 (A) (A) (A) (A) (A) (A) (A) (A) (A) (A) (A) (A)
                 (A) (A) (A) (A) (A) (A) (A) (A) (A) (A) (A) (A)
                 (A) (A) (A) (A) (A) (A) (A) (A) (A) (A) (A) (A)
                 (A) (A) (A) (A) (A) (A) (A) (A)
 The electronic state is 2-A.
 Alpha  occ. eigenvalues --  -89.28802 -89.08192 -19.24747 -19.24224 -19.22611
 Alpha  occ. eigenvalues --  -14.48506 -10.29741 -10.29701 -10.29117 -10.28708
 Alpha  occ. eigenvalues --  -10.26127 -10.24856 -10.23310 -10.22830 -10.22578
 Alpha  occ. eigenvalues --  -10.22321  -8.22121  -8.04434  -6.15844  -6.15800
 Alpha  occ. eigenvalues --   -6.15686  -5.98275  -5.97899  -5.97175  -1.14715
 Alpha  occ. eigenvalues --   -1.13622  -1.04477  -0.93303  -0.85925  -0.84035
 Alpha  occ. eigenvalues --   -0.82246  -0.77238  -0.74909  -0.72103  -0.71237
 Alpha  occ. eigenvalues --   -0.70587  -0.64476  -0.62460  -0.58984  -0.56419
 Alpha  occ. eigenvalues --   -0.53155  -0.51828  -0.51303  -0.50750  -0.50237
 Alpha  occ. eigenvalues --   -0.48516  -0.47413  -0.46361  -0.46179  -0.45139
 Alpha  occ. eigenvalues --   -0.44655  -0.43967  -0.42784  -0.42448  -0.41670
 Alpha  occ. eigenvalues --   -0.40511  -0.40085  -0.39083  -0.38888  -0.36503
 Alpha  occ. eigenvalues --   -0.36366  -0.36182  -0.35749  -0.35656  -0.34544
 Alpha  occ. eigenvalues --   -0.33587  -0.31776  -0.28319  -0.27216  -0.26893
 Alpha  occ. eigenvalues --   -0.20092
 Alpha virt. eigenvalues --   -0.05448  -0.02452   0.00468   0.01071   0.02633
 Alpha virt. eigenvalues --    0.03412   0.03696   0.04583   0.04814   0.04990
 Alpha virt. eigenvalues --    0.05448   0.05806   0.06162   0.06288   0.06853
 Alpha virt. eigenvalues --    0.07842   0.08241   0.08371   0.09037   0.09328
 Alpha virt. eigenvalues --    0.09388   0.09657   0.10355   0.10767   0.11010
 Alpha virt. eigenvalues --    0.11376   0.11831   0.12669   0.13022   0.13694
 Alpha virt. eigenvalues --    0.14033   0.14404   0.14715   0.15030   0.15542
 Alpha virt. eigenvalues --    0.15984   0.16647   0.16763   0.16938   0.17746
 Alpha virt. eigenvalues --    0.18390   0.18718   0.19267   0.19439   0.19651
 Alpha virt. eigenvalues --    0.19990   0.20880   0.21248   0.22035   0.22542
 Alpha virt. eigenvalues --    0.23191   0.23232   0.24007   0.24642   0.25428
 Alpha virt. eigenvalues --    0.26124   0.26327   0.26724   0.27142   0.27727
 Alpha virt. eigenvalues --    0.28010   0.28413   0.29095   0.29237   0.29830
 Alpha virt. eigenvalues --    0.30417   0.30588   0.31480   0.31703   0.31803
 Alpha virt. eigenvalues --    0.32284   0.32965   0.33519   0.34546   0.34989
 Alpha virt. eigenvalues --    0.35598   0.36811   0.37744   0.38131   0.40469
 Alpha virt. eigenvalues --    0.41764   0.41959   0.42285   0.43474   0.44260
 Alpha virt. eigenvalues --    0.46137   0.47109   0.47566   0.48088   0.50230
 Alpha virt. eigenvalues --    0.50727   0.50930   0.51828   0.51937   0.52849
 Alpha virt. eigenvalues --    0.53564   0.53980   0.54532   0.55465   0.56157
 Alpha virt. eigenvalues --    0.57081   0.58056   0.58171   0.59852   0.60513
 Alpha virt. eigenvalues --    0.60928   0.61898   0.62707   0.63139   0.63826
 Alpha virt. eigenvalues --    0.64234   0.64899   0.65365   0.65880   0.66646
 Alpha virt. eigenvalues --    0.67845   0.68086   0.68703   0.70018   0.71008
 Alpha virt. eigenvalues --    0.72098   0.72830   0.73164   0.73856   0.74212
 Alpha virt. eigenvalues --    0.74783   0.75884   0.76476   0.77246   0.78418
 Alpha virt. eigenvalues --    0.79043   0.79821   0.80810   0.81891   0.82158
 Alpha virt. eigenvalues --    0.82591   0.83197   0.83834   0.84870   0.85680
 Alpha virt. eigenvalues --    0.85991   0.87065   0.87960   0.88398   0.88705
 Alpha virt. eigenvalues --    0.89212   0.89833   0.90424   0.91004   0.91244
 Alpha virt. eigenvalues --    0.91590   0.92974   0.94234   0.94852   0.95429
 Alpha virt. eigenvalues --    0.96356   0.97426   0.97956   0.98044   0.99591
 Alpha virt. eigenvalues --    0.99777   1.01886   1.02215   1.03475   1.04537
 Alpha virt. eigenvalues --    1.04652   1.07804   1.08626   1.09160   1.11957
 Alpha virt. eigenvalues --    1.12565   1.14623   1.15061   1.15905   1.16906
 Alpha virt. eigenvalues --    1.18632   1.20287   1.21819   1.22305   1.23594
 Alpha virt. eigenvalues --    1.25543   1.28786   1.30064   1.31527   1.31722
 Alpha virt. eigenvalues --    1.36453   1.37823   1.39572   1.40104   1.41424
 Alpha virt. eigenvalues --    1.44338   1.45402   1.45922   1.48027   1.48822
 Alpha virt. eigenvalues --    1.49163   1.50313   1.51469   1.52982   1.55907
 Alpha virt. eigenvalues --    1.57556   1.59456   1.62545   1.63115   1.63297
 Alpha virt. eigenvalues --    1.65675   1.65953   1.66953   1.68110   1.68440
 Alpha virt. eigenvalues --    1.69292   1.71054   1.72253   1.73202   1.74944
 Alpha virt. eigenvalues --    1.75624   1.76463   1.77618   1.78810   1.79229
 Alpha virt. eigenvalues --    1.79741   1.80580   1.80973   1.81806   1.82587
 Alpha virt. eigenvalues --    1.83959   1.84414   1.85110   1.85955   1.87169
 Alpha virt. eigenvalues --    1.88062   1.89631   1.91007   1.92927   1.94139
 Alpha virt. eigenvalues --    1.95316   1.95876   1.97929   1.98242   1.98869
 Alpha virt. eigenvalues --    1.99466   2.02282   2.03136   2.04319   2.05659
 Alpha virt. eigenvalues --    2.06445   2.07267   2.10368   2.12385   2.13455
 Alpha virt. eigenvalues --    2.14910   2.16278   2.16930   2.24020   2.26060
 Alpha virt. eigenvalues --    2.27881   2.28578   2.31739   2.32957   2.34304
 Alpha virt. eigenvalues --    2.36743   2.38757   2.39413   2.40058   2.41060
 Alpha virt. eigenvalues --    2.42899   2.44870   2.47367   2.48747   2.49717
 Alpha virt. eigenvalues --    2.53757   2.54668   2.54865   2.58025   2.58930
 Alpha virt. eigenvalues --    2.60587   2.63942   2.65302   2.66068   2.67481
 Alpha virt. eigenvalues --    2.70709   2.75310   2.75872   2.77530   2.80600
 Alpha virt. eigenvalues --    2.82470   2.82690   2.83193   2.83308   2.84193
 Alpha virt. eigenvalues --    2.84390   2.85310   2.86547   2.87001   2.87972
 Alpha virt. eigenvalues --    2.88364   2.89648   2.90924   2.93184   2.93636
 Alpha virt. eigenvalues --    2.94570   2.95535   2.96840   2.97890   2.98407
 Alpha virt. eigenvalues --    2.99294   3.02621   3.03548   3.03955   3.06702
 Alpha virt. eigenvalues --    3.08110   3.15678   3.18294   3.19641   3.20624
 Alpha virt. eigenvalues --    3.26177   3.28218   3.29744   3.31218   3.31499
 Alpha virt. eigenvalues --    3.34466   3.35825   3.37340   3.38366   3.41505
 Alpha virt. eigenvalues --    3.42074   3.42985   3.45163   3.48198   3.49954
 Alpha virt. eigenvalues --    3.53767   3.56394   3.59688   3.63750   3.64722
 Alpha virt. eigenvalues --    3.76311   3.94798   4.47201   4.57471   4.62171
 Alpha virt. eigenvalues --    4.64290   4.72435   4.73816   4.74711   4.86558
 Alpha virt. eigenvalues --    4.91318   5.03124   5.44658   5.81773   5.84470
 Alpha virt. eigenvalues --    6.08226  22.21634  22.63372  58.49216  58.49251
 Alpha virt. eigenvalues --   58.50386  58.50656  58.50893  58.55598  58.56071
 Alpha virt. eigenvalues --   58.56344  58.56628  58.56828  95.61815 106.32250
 Alpha virt. eigenvalues --  106.33253 106.39172
  Beta  occ. eigenvalues --  -89.28802 -89.08191 -19.24747 -19.24224 -19.21181
  Beta  occ. eigenvalues --  -14.47316 -10.29743 -10.29701 -10.29182 -10.28773
  Beta  occ. eigenvalues --  -10.26126 -10.24854 -10.23258 -10.22778 -10.22529
  Beta  occ. eigenvalues --  -10.22271  -8.22121  -8.04434  -6.15844  -6.15800
  Beta  occ. eigenvalues --   -6.15686  -5.98275  -5.97898  -5.97175  -1.14715
  Beta  occ. eigenvalues --   -1.10991  -1.04477  -0.92354  -0.85735  -0.83932
  Beta  occ. eigenvalues --   -0.82114  -0.77044  -0.73841  -0.71851  -0.71107
  Beta  occ. eigenvalues --   -0.70129  -0.64423  -0.62332  -0.58608  -0.55910
  Beta  occ. eigenvalues --   -0.53064  -0.51822  -0.51017  -0.50414  -0.48346
  Beta  occ. eigenvalues --   -0.47531  -0.47183  -0.46345  -0.46115  -0.44982
  Beta  occ. eigenvalues --   -0.44274  -0.43811  -0.42508  -0.41650  -0.41198
  Beta  occ. eigenvalues --   -0.40206  -0.40031  -0.38751  -0.37672  -0.36324
  Beta  occ. eigenvalues --   -0.36125  -0.35718  -0.35697  -0.34516  -0.33584
  Beta  occ. eigenvalues --   -0.32752  -0.31771  -0.28239  -0.26722  -0.25996
  Beta virt. eigenvalues --   -0.05449  -0.03754  -0.02413   0.00481   0.01077
  Beta virt. eigenvalues --    0.02654   0.03439   0.03734   0.04623   0.04905
  Beta virt. eigenvalues --    0.05021   0.05474   0.05849   0.06190   0.06314
  Beta virt. eigenvalues --    0.06921   0.07861   0.08296   0.08447   0.09063
  Beta virt. eigenvalues --    0.09369   0.09511   0.09719   0.10400   0.10816
  Beta virt. eigenvalues --    0.11030   0.11434   0.11927   0.12784   0.13110
  Beta virt. eigenvalues --    0.13752   0.14092   0.14445   0.14807   0.15088
  Beta virt. eigenvalues --    0.15869   0.16074   0.16693   0.17002   0.17195
  Beta virt. eigenvalues --    0.17883   0.18437   0.18826   0.19388   0.19602
  Beta virt. eigenvalues --    0.19797   0.20193   0.21023   0.21365   0.22130
  Beta virt. eigenvalues --    0.22707   0.23267   0.23306   0.24154   0.24955
  Beta virt. eigenvalues --    0.25580   0.26234   0.26415   0.26833   0.27237
  Beta virt. eigenvalues --    0.27775   0.28132   0.28563   0.29146   0.29381
  Beta virt. eigenvalues --    0.30227   0.30600   0.30948   0.31606   0.31885
  Beta virt. eigenvalues --    0.32077   0.32582   0.33050   0.33607   0.34617
  Beta virt. eigenvalues --    0.35099   0.35800   0.36847   0.37819   0.38219
  Beta virt. eigenvalues --    0.40506   0.41824   0.42009   0.42734   0.43509
  Beta virt. eigenvalues --    0.44439   0.46202   0.47242   0.47594   0.48130
  Beta virt. eigenvalues --    0.50338   0.50877   0.51042   0.51928   0.52036
  Beta virt. eigenvalues --    0.52890   0.53677   0.54097   0.54680   0.55527
  Beta virt. eigenvalues --    0.56238   0.57170   0.58126   0.58352   0.59954
  Beta virt. eigenvalues --    0.60630   0.61060   0.61930   0.62740   0.63316
  Beta virt. eigenvalues --    0.63968   0.64315   0.64964   0.65527   0.66046
  Beta virt. eigenvalues --    0.66723   0.67897   0.68388   0.68832   0.70257
  Beta virt. eigenvalues --    0.71269   0.72153   0.72936   0.73220   0.73937
  Beta virt. eigenvalues --    0.74437   0.74816   0.76008   0.76532   0.77318
  Beta virt. eigenvalues --    0.78617   0.79133   0.80010   0.80931   0.82083
  Beta virt. eigenvalues --    0.82244   0.82685   0.83265   0.83904   0.84939
  Beta virt. eigenvalues --    0.85755   0.86079   0.87174   0.87990   0.88463
  Beta virt. eigenvalues --    0.88744   0.89248   0.89894   0.90536   0.91077
  Beta virt. eigenvalues --    0.91315   0.91779   0.93137   0.94432   0.94952
  Beta virt. eigenvalues --    0.95489   0.96516   0.97566   0.98059   0.99306
  Beta virt. eigenvalues --    0.99641   0.99958   1.02117   1.02276   1.03592
  Beta virt. eigenvalues --    1.04638   1.04817   1.07856   1.08672   1.09353
  Beta virt. eigenvalues --    1.12329   1.12719   1.14648   1.15115   1.16071
  Beta virt. eigenvalues --    1.17159   1.18948   1.20630   1.22244   1.23378
  Beta virt. eigenvalues --    1.24112   1.26062   1.29231   1.30589   1.31778
  Beta virt. eigenvalues --    1.32278   1.36835   1.38149   1.39635   1.40178
  Beta virt. eigenvalues --    1.41490   1.44370   1.45599   1.46190   1.48230
  Beta virt. eigenvalues --    1.48918   1.49247   1.50363   1.51568   1.53013
  Beta virt. eigenvalues --    1.56085   1.57637   1.59570   1.62572   1.63136
  Beta virt. eigenvalues --    1.63318   1.66026   1.66145   1.67524   1.68294
  Beta virt. eigenvalues --    1.68454   1.69579   1.71118   1.72301   1.73317
  Beta virt. eigenvalues --    1.75028   1.75690   1.76588   1.77655   1.78866
  Beta virt. eigenvalues --    1.79273   1.79816   1.80665   1.81021   1.81868
  Beta virt. eigenvalues --    1.82725   1.84093   1.84487   1.85203   1.86090
  Beta virt. eigenvalues --    1.87310   1.88173   1.89745   1.91261   1.93090
  Beta virt. eigenvalues --    1.94232   1.95327   1.95899   1.98127   1.98411
  Beta virt. eigenvalues --    1.99154   1.99717   2.02609   2.03420   2.04518
  Beta virt. eigenvalues --    2.06044   2.06855   2.07665   2.10733   2.12822
  Beta virt. eigenvalues --    2.13581   2.15191   2.16325   2.17366   2.24848
  Beta virt. eigenvalues --    2.26121   2.28070   2.29703   2.31860   2.33043
  Beta virt. eigenvalues --    2.34433   2.36835   2.38761   2.39416   2.40234
  Beta virt. eigenvalues --    2.41386   2.43156   2.44973   2.47532   2.49266
  Beta virt. eigenvalues --    2.49868   2.53931   2.54940   2.55993   2.58505
  Beta virt. eigenvalues --    2.59030   2.60640   2.64027   2.65407   2.66135
  Beta virt. eigenvalues --    2.68360   2.70878   2.75418   2.76251   2.77762
  Beta virt. eigenvalues --    2.80820   2.82484   2.82719   2.83260   2.84206
  Beta virt. eigenvalues --    2.84278   2.85349   2.85899   2.86969   2.87270
  Beta virt. eigenvalues --    2.88278   2.89590   2.89782   2.91182   2.93223
  Beta virt. eigenvalues --    2.94641   2.95482   2.95762   2.96967   2.98106
  Beta virt. eigenvalues --    2.98464   2.99743   3.02819   3.04057   3.04447
  Beta virt. eigenvalues --    3.06787   3.08224   3.16034   3.19220   3.19856
  Beta virt. eigenvalues --    3.24043   3.26181   3.28220   3.30251   3.31272
  Beta virt. eigenvalues --    3.31564   3.34514   3.35835   3.37384   3.38384
  Beta virt. eigenvalues --    3.41569   3.42211   3.43052   3.45206   3.48313
  Beta virt. eigenvalues --    3.50091   3.53943   3.56429   3.59731   3.63859
  Beta virt. eigenvalues --    3.64743   3.76330   3.96501   4.47273   4.57532
  Beta virt. eigenvalues --    4.62171   4.64410   4.72510   4.73920   4.74817
  Beta virt. eigenvalues --    4.86684   4.91357   5.03127   5.46543   5.81782
  Beta virt. eigenvalues --    5.84471   6.10731  22.21634  22.63373  58.49215
  Beta virt. eigenvalues --   58.49251  58.50368  58.50618  58.50840  58.55645
  Beta virt. eigenvalues --   58.56118  58.56386  58.56671  58.56830  95.62744
  Beta virt. eigenvalues --  106.32251 106.33253 106.40312
          Condensed to atoms (all electrons):
               1          2          3          4          5          6
     1  O    8.673656  -0.022771  -0.085315  -0.001641   0.037051  -0.003835
     2  N   -0.022771   7.354663   0.089887  -0.064200  -0.020019   0.015915
     3  C   -0.085315   0.089887   5.432666   0.244122  -0.098063   0.018197
     4  C   -0.001641  -0.064200   0.244122   5.179640   0.607691  -0.034510
     5  C    0.037051  -0.020019  -0.098063   0.607691   5.389838   0.193950
     6  C   -0.003835   0.015915   0.018197  -0.034510   0.193950   5.228355
     7  S   -0.000774   0.004878   0.000299  -0.002456  -0.128023   0.259196
     8  C   -0.071151   0.066711  -0.140485  -0.054011   0.217981  -0.074711
     9  C   -0.015664  -0.090567   0.006684  -0.003110  -0.064128   0.008514
    10  C   -0.006069  -0.085621   0.017672  -0.009735  -0.080277   0.005390
    11  C   -0.002149  -0.104053   0.312837  -0.051587  -0.010914  -0.002316
    12  C   -0.007203  -0.092893   0.312753  -0.074437  -0.000729  -0.001683
    13  H   -0.000738   0.004420  -0.036098   0.406165  -0.050233  -0.001537
    14  H    0.000035  -0.001527   0.002515   0.022546  -0.081555   0.420120
    15  H    0.000144  -0.003549  -0.000050   0.005639  -0.063686   0.407694
    16  H   -0.001569   0.014359  -0.004403   0.004316   0.002590  -0.000859
    17  H   -0.000482   0.006769  -0.000359   0.001027  -0.006739   0.002178
    18  H    0.007629  -0.025332   0.001812  -0.000882   0.008321  -0.000966
    19  H    0.008126  -0.024857  -0.001376  -0.001353   0.018680  -0.001323
    20  H   -0.000671   0.004688  -0.000774   0.001491  -0.002685   0.001952
    21  H   -0.000154   0.006304   0.001873   0.000412  -0.004923   0.003865
    22  H    0.000009   0.004101  -0.053334  -0.006575   0.008382  -0.000699
    23  H   -0.000861   0.007028  -0.046698   0.000987   0.001721  -0.000049
    24  H    0.007411  -0.024238  -0.033837   0.015702  -0.002692   0.000071
    25  H    0.007741  -0.030818  -0.025307   0.015302  -0.001150   0.000017
    26  H   -0.000339   0.009588  -0.047673  -0.002854   0.000080  -0.000029
    27  H   -0.000589   0.011058  -0.061414  -0.003582   0.005174  -0.000513
    28  S   -0.000213   0.000171  -0.001251  -0.031356  -0.004290  -0.004476
    29  O    0.000276   0.003326  -0.002567   0.031558   0.008806   0.004713
    30  O    0.000168  -0.001796  -0.004915   0.025010   0.016517  -0.024440
    31  C    0.000012  -0.000005  -0.000598   0.003416   0.003872  -0.000349
    32  H   -0.000000  -0.000005   0.000031  -0.000142  -0.000389   0.000147
    33  H   -0.000000   0.000003   0.000020   0.000011   0.000052   0.000203
    34  H   -0.000000   0.000001  -0.000026  -0.000528   0.000153  -0.000420
               7          8          9         10         11         12
     1  O   -0.000774  -0.071151  -0.015664  -0.006069  -0.002149  -0.007203
     2  N    0.004878   0.066711  -0.090567  -0.085621  -0.104053  -0.092893
     3  C    0.000299  -0.140485   0.006684   0.017672   0.312837   0.312753
     4  C   -0.002456  -0.054011  -0.003110  -0.009735  -0.051587  -0.074437
     5  C   -0.128023   0.217981  -0.064128  -0.080277  -0.010914  -0.000729
     6  C    0.259196  -0.074711   0.008514   0.005390  -0.002316  -0.001683
     7  S   15.866092  -0.003995   0.003700  -0.000467  -0.000218   0.000887
     8  C   -0.003995   5.423997   0.322609   0.325710   0.018158   0.018356
     9  C    0.003700   0.322609   5.009267  -0.085041  -0.005448   0.004870
    10  C   -0.000467   0.325710  -0.085041   5.034832   0.005099  -0.005995
    11  C   -0.000218   0.018158  -0.005448   0.005099   5.034641  -0.081487
    12  C    0.000887   0.018356   0.004870  -0.005995  -0.081487   5.020610
    13  H    0.000005   0.012249  -0.000895  -0.001516  -0.000617   0.002690
    14  H   -0.042051   0.002712   0.000047  -0.001852  -0.000131  -0.000034
    15  H   -0.041375   0.007858  -0.000917   0.005728   0.000311  -0.000068
    16  H    0.000951  -0.064313   0.412612   0.009173   0.000178  -0.001499
    17  H    0.001042  -0.034517   0.399869  -0.004080   0.000142  -0.000136
    18  H    0.000023  -0.032666   0.412669  -0.003927  -0.000084   0.000027
    19  H    0.000021  -0.040662  -0.002868   0.415272  -0.000322   0.000114
    20  H   -0.000151  -0.038727  -0.003877   0.401294  -0.000074   0.000157
    21  H   -0.001097  -0.056049   0.008340   0.409984  -0.000863  -0.000094
    22  H    0.000012  -0.001392   0.000071  -0.001043   0.410495   0.008332
    23  H    0.000006  -0.001230   0.000170  -0.000078   0.405647  -0.002882
    24  H   -0.000012   0.000539  -0.000006  -0.000304   0.411570  -0.003964
    25  H   -0.000034  -0.002029   0.000184  -0.000052  -0.004423   0.410274
    26  H   -0.000004  -0.000747  -0.000139   0.000164  -0.002197   0.406642
    27  H   -0.000048  -0.000298  -0.001599   0.000101   0.009097   0.412904
    28  S    0.310781   0.002067  -0.003241  -0.000203  -0.000920   0.002079
    29  O   -0.075139  -0.006597  -0.000941   0.000076   0.000309  -0.006119
    30  O   -0.083599  -0.002588   0.000699  -0.000059   0.001135   0.000417
    31  C   -0.052105  -0.000926   0.000187   0.000045   0.000059  -0.000188
    32  H   -0.000608   0.000123  -0.000063  -0.000002  -0.000001  -0.000006
    33  H    0.001485  -0.000037  -0.000002   0.000001  -0.000000  -0.000005
    34  H    0.002653   0.000117   0.000004  -0.000001  -0.000000   0.000008
              13         14         15         16         17         18
     1  O   -0.000738   0.000035   0.000144  -0.001569  -0.000482   0.007629
     2  N    0.004420  -0.001527  -0.003549   0.014359   0.006769  -0.025332
     3  C   -0.036098   0.002515  -0.000050  -0.004403  -0.000359   0.001812
     4  C    0.406165   0.022546   0.005639   0.004316   0.001027  -0.000882
     5  C   -0.050233  -0.081555  -0.063686   0.002590  -0.006739   0.008321
     6  C   -0.001537   0.420120   0.407694  -0.000859   0.002178  -0.000966
     7  S    0.000005  -0.042051  -0.041375   0.000951   0.001042   0.000023
     8  C    0.012249   0.002712   0.007858  -0.064313  -0.034517  -0.032666
     9  C   -0.000895   0.000047  -0.000917   0.412612   0.399869   0.412669
    10  C   -0.001516  -0.001852   0.005728   0.009173  -0.004080  -0.003927
    11  C   -0.000617  -0.000131   0.000311   0.000178   0.000142  -0.000084
    12  C    0.002690  -0.000034  -0.000068  -0.001499  -0.000136   0.000027
    13  H    0.508536   0.002141  -0.000025  -0.000041  -0.000001   0.000004
    14  H    0.002141   0.489312  -0.014206  -0.000034  -0.000017   0.000001
    15  H   -0.000025  -0.014206   0.530619   0.000088  -0.000045   0.000011
    16  H   -0.000041  -0.000034   0.000088   0.537195  -0.019237  -0.015073
    17  H   -0.000001  -0.000017  -0.000045  -0.019237   0.566222  -0.021005
    18  H    0.000004   0.000001   0.000011  -0.015073  -0.021005   0.522288
    19  H    0.000005   0.000003  -0.000033  -0.000007  -0.000254   0.001938
    20  H    0.000002   0.000019  -0.000044   0.000098   0.001241  -0.000159
    21  H   -0.000015  -0.000011  -0.000250  -0.000140   0.000073   0.000031
    22  H    0.000073   0.000004   0.000002  -0.000001   0.000000   0.000000
    23  H    0.000534   0.000001   0.000000  -0.000000  -0.000000   0.000000
    24  H    0.000017   0.000000  -0.000000  -0.000001   0.000000  -0.000002
    25  H   -0.000042  -0.000000   0.000000  -0.000004  -0.000000  -0.000009
    26  H    0.000170  -0.000001   0.000000   0.000008  -0.000000  -0.000000
    27  H   -0.000115  -0.000002   0.000000   0.000311   0.000010  -0.000012
    28  S    0.003515  -0.014263   0.002878  -0.000857  -0.000986   0.000381
    29  O   -0.000353   0.001038  -0.000796  -0.000044   0.000184  -0.000011
    30  O   -0.001036   0.011533  -0.001262   0.000063   0.000020  -0.000010
    31  C   -0.000116   0.000452  -0.000047   0.000032   0.000049  -0.000003
    32  H    0.000000   0.000005  -0.000001  -0.000000  -0.000000   0.000000
    33  H    0.000000  -0.000011   0.000000   0.000000   0.000000  -0.000000
    34  H    0.000001   0.000024  -0.000000   0.000000  -0.000000   0.000000
              19         20         21         22         23         24
     1  O    0.008126  -0.000671  -0.000154   0.000009  -0.000861   0.007411
     2  N   -0.024857   0.004688   0.006304   0.004101   0.007028  -0.024238
     3  C   -0.001376  -0.000774   0.001873  -0.053334  -0.046698  -0.033837
     4  C   -0.001353   0.001491   0.000412  -0.006575   0.000987   0.015702
[...]
     7  S   -0.019877   0.000419
     8  C    0.207947  -0.035832
     9  C    0.068151   0.023063
    10  C    0.030603   0.020720
    11  C    0.039628   0.020599
    12  C    0.061103   0.023776
    28  S    0.890478  -0.000080
    29  O   -0.511821   0.000003
    30  O   -0.568938  -0.000018
    31  C    0.150036  -0.000010
 Electronic spatial extent (au):  <R**2>=           4766.2513
 Charge=             -0.0000 electrons
 Dipole moment (field-independent basis, Debye):
    X=              4.1696    Y=              1.8409    Z=             -2.2343  Tot=              5.0761
 Quadrupole moment (field-independent basis, Debye-Ang):
   XX=           -107.2517   YY=           -109.0334   ZZ=           -116.3612
   XY=              5.3263   XZ=              7.0697   YZ=             -0.6331
 Traceless Quadrupole moment (field-independent basis, Debye-Ang):
   XX=              3.6304   YY=              1.8487   ZZ=             -5.4791
   XY=              5.3263   XZ=              7.0697   YZ=             -0.6331
 Octapole moment (field-independent basis, Debye-Ang**2):
  XXX=            184.9598  YYY=             -3.7946  ZZZ=              0.1996  XYY=            -13.9151
  XXY=             -8.4673  XXZ=             -9.9027  XZZ=              0.7272  YZZ=              5.9680
  YYZ=             -2.4457  XYZ=              0.5243
 Hexadecapole moment (field-independent basis, Debye-Ang**3):
 XXXX=          -3942.5020 YYYY=          -1372.2913 ZZZZ=           -686.8447 XXXY=            -20.6075
 XXXZ=            127.6163 YYYX=            -16.8118 YYYZ=              0.9883 ZZZX=            -10.5223
 ZZZY=             -2.4703 XXYY=           -932.1005 XXZZ=           -859.9438 YYZZ=           -351.5180
 XXYZ=             -4.1293 YYXZ=             -4.3226 ZZXY=             14.7199
 N-N= 1.521187114674D+03 E-N=-6.497786976110D+03  KE= 1.459900704946D+03
                          Isotropic Fermi Contact Couplings
        Atom                 a.u.       MegaHertz       Gauss      10(-4) cm-1
     1  O(17)              0.08639     -52.36647     -18.68566     -17.46757
     2  N(14)              0.10630      34.34661      12.25573      11.45680
     3  C(13)             -0.01484     -16.68179      -5.95248      -5.56445
     4  C(13)             -0.00026      -0.29649      -0.10579      -0.09890
     5  C(13)             -0.00045      -0.50089      -0.17873      -0.16708
     6  C(13)             -0.00074      -0.82857      -0.29565      -0.27638
     7  S(33)             -0.00000      -0.00143      -0.00051      -0.00048
     8  C(13)             -0.01512     -16.99526      -6.06433      -5.66901
     9  C(13)              0.01278      14.37167       5.12817       4.79387
    10  C(13)              0.01770      19.89780       7.10003       6.63719
    11  C(13)              0.01730      19.45186       6.94091       6.48844
    12  C(13)              0.01328      14.92368       5.32514       4.97801
    13  H(1)              -0.00033      -1.47233      -0.52536      -0.49112
    14  H(1)               0.00001       0.05549       0.01980       0.01851
    15  H(1)               0.00001       0.05944       0.02121       0.01983
    16  H(1)              -0.00039      -1.74968      -0.62433      -0.58363
    17  H(1)               0.00028       1.25053       0.44622       0.41713
    18  H(1)              -0.00052      -2.34305      -0.83606      -0.78156
    19  H(1)              -0.00049      -2.20048      -0.78518      -0.73400
    20  H(1)               0.00039       1.72366       0.61505       0.57495
    21  H(1)              -0.00034      -1.50625      -0.53747      -0.50243
    22  H(1)              -0.00034      -1.52061      -0.54259      -0.50722
    23  H(1)               0.00036       1.59858       0.57041       0.53323
    24  H(1)              -0.00047      -2.11234      -0.75374      -0.70460
    25  H(1)              -0.00051      -2.28456      -0.81519      -0.76205
    26  H(1)               0.00032       1.43042       0.51041       0.47714
    27  H(1)              -0.00040      -1.77981      -0.63508      -0.59368
    28  S(33)              0.00000       0.00039       0.00014       0.00013
    29  O(17)             -0.00001       0.00392       0.00140       0.00131
    30  O(17)             -0.00003       0.01869       0.00667       0.00623
    31  C(13)             -0.00000      -0.00431      -0.00154      -0.00144
    32  H(1)               0.00000       0.00101       0.00036       0.00034
    33  H(1)               0.00000       0.00081       0.00029       0.00027
    34  H(1)              -0.00000      -0.00056      -0.00020      -0.00019
 --------------------------------------------------------
       Center         ----  Spin Dipole Couplings  ----
                      3XX-RR        3YY-RR        3ZZ-RR
 --------------------------------------------------------
     1   Atom       -0.213385     -0.886398      1.099783
     2   Atom       -0.144833     -0.556183      0.701016
     3   Atom       -0.005562      0.011665     -0.006103
     4   Atom        0.004884     -0.005135      0.000251
     5   Atom        0.008530     -0.007182     -0.001348
     6   Atom        0.002252     -0.001409     -0.000843
     7   Atom        0.002364     -0.001317     -0.001047
     8   Atom        0.002996      0.004962     -0.007958
     9   Atom       -0.011061     -0.000688      0.011749
    10   Atom       -0.009883      0.019714     -0.009831
    11   Atom       -0.000775      0.002405     -0.001630
    12   Atom       -0.016983      0.015822      0.001161
    13   Atom        0.001778     -0.001073     -0.000704
    14   Atom        0.001460     -0.001216     -0.000244
    15   Atom        0.001225     -0.000688     -0.000537
    16   Atom        0.003343     -0.003380      0.000037
    17   Atom        0.000429      0.001943     -0.002372
    18   Atom       -0.002113      0.004336     -0.002223
    19   Atom       -0.004853      0.009742     -0.004889
    20   Atom       -0.001232      0.003900     -0.002668
    21   Atom       -0.005620      0.000534      0.005085
    22   Atom       -0.005756     -0.002150      0.007906
    23   Atom       -0.002702      0.003614     -0.000912
    24   Atom       -0.001817      0.003960     -0.002143
    25   Atom       -0.004818      0.009851     -0.005033
    26   Atom       -0.002829      0.005383     -0.002554
    27   Atom       -0.000420      0.001833     -0.001413
    28   Atom        0.001425     -0.000726     -0.000698
    29   Atom        0.001471     -0.000690     -0.000781
    30   Atom        0.001038     -0.000590     -0.000448
    31   Atom        0.000663     -0.000329     -0.000334
    32   Atom        0.000621     -0.000311     -0.000310
    33   Atom        0.000520     -0.000249     -0.000270
    34   Atom        0.000552     -0.000285     -0.000267
 --------------------------------------------------------
                        XY            XZ            YZ
 --------------------------------------------------------
     1   Atom       -0.302653      1.358270     -0.495787
     2   Atom       -0.178810      0.779804     -0.297540
     3   Atom       -0.008207     -0.001077      0.006516
     4   Atom       -0.006329     -0.007132      0.003070
     5   Atom        0.002630     -0.007418     -0.001353
     6   Atom        0.000974     -0.001768     -0.000399
     7   Atom        0.000940      0.000534      0.000205
     8   Atom        0.012401     -0.000958     -0.002631
     9   Atom        0.010165      0.007752      0.021655
    10   Atom       -0.011022      0.004183     -0.017695
    11   Atom        0.015233      0.013973      0.018598
    12   Atom       -0.003540     -0.001252     -0.023131
    13   Atom       -0.002804     -0.002846      0.001668
    14   Atom        0.000293     -0.001637     -0.000198
    15   Atom        0.001542     -0.001640     -0.000913
    16   Atom        0.003593      0.007095      0.002024
    17   Atom        0.005265      0.000572      0.001146
    18   Atom        0.005893      0.002192      0.007977
    19   Atom       -0.001636     -0.001173     -0.005226
    20   Atom        0.003295     -0.001015     -0.003101
    21   Atom        0.001098      0.000181     -0.007465
    22   Atom        0.000548      0.002795      0.005403
    23   Atom       -0.000979     -0.000118      0.004642
    24   Atom        0.005471      0.001915      0.006996
    25   Atom       -0.001455     -0.001340     -0.005358
    26   Atom       -0.003440     -0.000669      0.000357
    27   Atom       -0.005902      0.004850     -0.004362
    28   Atom       -0.000211     -0.000170      0.000027
    29   Atom       -0.000555      0.000340     -0.000081
    30   Atom       -0.000404     -0.000557      0.000138
    31   Atom       -0.000043     -0.000046      0.000003
    32   Atom        0.000035      0.000068      0.000003
    33   Atom       -0.000125     -0.000022      0.000003
    34   Atom        0.000021     -0.000132     -0.000002
 --------------------------------------------------------


 ---------------------------------------------------------------------------------
              Anisotropic Spin Dipole Couplings in Principal Axis System
 ---------------------------------------------------------------------------------

       Atom             a.u.   MegaHertz   Gauss  10(-4) cm-1        Axes

              Baa    -1.0662    77.148    27.528    25.734  0.8318 -0.1036 -0.5453
     1 O(17)  Bbb    -0.9999    72.354    25.818    24.135  0.1914  0.9757  0.1066
              Bcc     2.0661  -149.502   -53.346   -49.868  0.5210 -0.1930  0.8314
 
              Baa    -0.6237   -24.054    -8.583    -8.024  0.1805  0.9770  0.1132
     2 N(14)  Bbb    -0.6089   -23.483    -8.379    -7.833  0.8457 -0.0953 -0.5251
              Bcc     1.2326    47.537    16.962    15.857  0.5023 -0.1905  0.8435
 
              Baa    -0.0098    -1.319    -0.471    -0.440  0.7003  0.4382 -0.5635
     3 C(13)  Bbb    -0.0069    -0.932    -0.332    -0.311  0.6258  0.0029  0.7800
              Bcc     0.0168     2.251     0.803     0.751 -0.3434  0.8989  0.2722
 
              Baa    -0.0082    -1.103    -0.394    -0.368  0.4652  0.8823  0.0718
     4 C(13)  Bbb    -0.0045    -0.609    -0.217    -0.203  0.4391 -0.3004  0.8467
              Bcc     0.0128     1.712     0.611     0.571  0.7686 -0.3623 -0.5272
 
              Baa    -0.0076    -1.022    -0.365    -0.341 -0.1382  0.9891  0.0499
     5 C(13)  Bbb    -0.0053    -0.714    -0.255    -0.238  0.4689  0.0209  0.8830
              Bcc     0.0129     1.736     0.619     0.579  0.8724  0.1454 -0.4667
 
              Baa    -0.0017    -0.226    -0.081    -0.075 -0.4321  0.6885 -0.5824
     6 C(13)  Bbb    -0.0016    -0.216    -0.077    -0.072  0.1493  0.6915  0.7068
              Bcc     0.0033     0.441     0.158     0.147  0.8894  0.2184 -0.4016
 
              Baa    -0.0016    -0.064    -0.023    -0.021 -0.2080  0.9633 -0.1695
     7 S(33)  Bbb    -0.0011    -0.046    -0.016    -0.015 -0.1848  0.1315  0.9739
              Bcc     0.0027     0.110     0.039     0.037  0.9605  0.2339  0.1507
 
              Baa    -0.0094    -1.265    -0.451    -0.422 -0.5016  0.5538  0.6645
     8 C(13)  Bbb    -0.0073    -0.975    -0.348    -0.325  0.5453 -0.3939  0.7399
              Bcc     0.0167     2.240     0.799     0.747  0.6716  0.7335 -0.1044
 
              Baa    -0.0193    -2.596    -0.926    -0.866 -0.5559  0.7407 -0.3773
     9 C(13)  Bbb    -0.0123    -1.648    -0.588    -0.550  0.7832  0.3147 -0.5362
              Bcc     0.0316     4.244     1.514     1.416  0.2784  0.5935  0.7551
 
              Baa    -0.0183    -2.450    -0.874    -0.817  0.1615  0.4550  0.8757
    10 C(13)  Bbb    -0.0131    -1.757    -0.627    -0.586  0.9480  0.1751 -0.2658
              Bcc     0.0313     4.206     1.501     1.403 -0.2743  0.8731 -0.4031
 
              Baa    -0.0183    -2.459    -0.878    -0.820 -0.0368 -0.6522  0.7572
    11 C(13)  Bbb    -0.0138    -1.847    -0.659    -0.616  0.8457 -0.4239 -0.3241
              Bcc     0.0321     4.307     1.537     1.437  0.5324  0.6284  0.5672
 
              Baa    -0.0196    -2.629    -0.938    -0.877  0.7756  0.3977  0.4902
    12 C(13)  Bbb    -0.0133    -1.779    -0.635    -0.593 -0.6298  0.4352  0.6434
              Bcc     0.0328     4.408     1.573     1.470 -0.0426  0.8078 -0.5880
 
              Baa    -0.0028    -1.497    -0.534    -0.499  0.5903  0.7883  0.1739
    13 H(1)   Bbb    -0.0025    -1.335    -0.476    -0.445  0.3000 -0.4142  0.8593
              Bcc     0.0053     2.832     1.010     0.945  0.7494 -0.4551 -0.4810
 
              Baa    -0.0013    -0.673    -0.240    -0.225  0.2332  0.8132  0.5333
    14 H(1)   Bbb    -0.0012    -0.654    -0.233    -0.218  0.4710 -0.5742  0.6697
              Bcc     0.0025     1.327     0.473     0.443  0.8508  0.0950 -0.5169
 
              Baa    -0.0015    -0.825    -0.294    -0.275 -0.4849  0.8746  0.0032
    15 H(1)   Bbb    -0.0015    -0.808    -0.288    -0.270  0.4058  0.2218  0.8867
              Bcc     0.0031     1.633     0.583     0.545  0.7747  0.4312 -0.4624
 
              Baa    -0.0059    -3.145    -1.122    -1.049  0.6500 -0.4175 -0.6350
    16 H(1)   Bbb    -0.0043    -2.296    -0.819    -0.766  0.0620  0.8619 -0.5033
              Bcc     0.0102     5.441     1.942     1.815  0.7574  0.2878  0.5861
 
              Baa    -0.0042    -2.238    -0.798    -0.746  0.7282 -0.6596  0.1861
    17 H(1)   Bbb    -0.0025    -1.324    -0.473    -0.442 -0.2295  0.0211  0.9731
              Bcc     0.0067     3.562     1.271     1.188  0.6458  0.7513  0.1360
 
              Baa    -0.0081    -4.329    -1.545    -1.444  0.3479 -0.6169  0.7059
    18 H(1)   Bbb    -0.0042    -2.231    -0.796    -0.744  0.8512 -0.1078 -0.5137
              Bcc     0.0123     6.561     2.341     2.188  0.3930  0.7796  0.4876
 
              Baa    -0.0076    -4.033    -1.439    -1.345  0.5235  0.2914  0.8007
    19 H(1)   Bbb    -0.0039    -2.106    -0.752    -0.703  0.8488 -0.0969 -0.5197
              Bcc     0.0115     6.139     2.190     2.048 -0.0738  0.9517 -0.2981
 
              Baa    -0.0040    -2.109    -0.753    -0.704 -0.1891  0.4283  0.8836
    20 H(1)   Bbb    -0.0027    -1.431    -0.511    -0.477  0.8965 -0.2918  0.3333
              Bcc     0.0066     3.540     1.263     1.181  0.4006  0.8552 -0.3287
 
              Baa    -0.0064    -3.391    -1.210    -1.131  0.8084 -0.4871 -0.3306
    21 H(1)   Bbb    -0.0043    -2.281    -0.814    -0.761  0.5879  0.6379  0.4974
              Bcc     0.0106     5.672     2.024     1.892 -0.0314 -0.5965  0.8020
 
              Baa    -0.0064    -3.424    -1.222    -1.142  0.9405  0.2137 -0.2641
    22 H(1)   Bbb    -0.0043    -2.300    -0.821    -0.767 -0.2961  0.8968 -0.3288
              Bcc     0.0107     5.724     2.042     1.909  0.1666  0.3875  0.9067
 
              Baa    -0.0040    -2.113    -0.754    -0.705 -0.3335 -0.5235  0.7840
    23 H(1)   Bbb    -0.0026    -1.409    -0.503    -0.470  0.9379 -0.0998  0.3323
              Bcc     0.0066     3.522     1.257     1.175 -0.0957  0.8461  0.5243
 
              Baa    -0.0073    -3.887    -1.387    -1.297  0.3699 -0.6138  0.6974
    24 H(1)   Bbb    -0.0037    -1.996    -0.712    -0.666  0.8367 -0.1063 -0.5373
              Bcc     0.0110     5.883     2.099     1.962  0.4039  0.7823  0.4743
 
              Baa    -0.0078    -4.150    -1.481    -1.384  0.5088  0.2885  0.8111
    25 H(1)   Bbb    -0.0039    -2.059    -0.735    -0.687  0.8588 -0.1049 -0.5015
              Bcc     0.0116     6.209     2.216     2.071 -0.0596  0.9517 -0.3011
 
              Baa    -0.0042    -2.260    -0.806    -0.754  0.9036  0.3124  0.2931
    26 H(1)   Bbb    -0.0024    -1.298    -0.463    -0.433 -0.2556 -0.1561  0.9541
              Bcc     0.0067     3.558     1.270     1.187 -0.3438  0.9371  0.0612
 
              Baa    -0.0060    -3.201    -1.142    -1.068  0.7791  0.2726 -0.5646
    27 H(1)   Bbb    -0.0043    -2.289    -0.817    -0.764  0.2376  0.7050  0.6683
              Bcc     0.0103     5.490     1.959     1.831 -0.5802  0.6548 -0.4844
 
              Baa    -0.0007    -0.031    -0.011    -0.010  0.0724  0.9613 -0.2659
    28 S(33)  Bbb    -0.0007    -0.029    -0.010    -0.010  0.1021  0.2581  0.9607
              Bcc     0.0015     0.060     0.021     0.020  0.9921 -0.0967 -0.0794
 
              Baa    -0.0008     0.060     0.021     0.020 -0.1676 -0.0939  0.9814
    29 O(17)  Bbb    -0.0008     0.060     0.021     0.020  0.2149  0.9680  0.1293
              Bcc     0.0017    -0.120    -0.043    -0.040  0.9622 -0.2325  0.1420
 
              Baa    -0.0007     0.050     0.018     0.017  0.1891  0.9744 -0.1218
    30 O(17)  Bbb    -0.0006     0.046     0.016     0.015  0.3274  0.0543  0.9433
              Bcc     0.0013    -0.095    -0.034    -0.032  0.9258 -0.2183 -0.3087
 
              Baa    -0.0003    -0.045    -0.016    -0.015  0.0397 -0.1412  0.9892
    31 C(13)  Bbb    -0.0003    -0.044    -0.016    -0.015  0.0490  0.9890  0.1392
              Bcc     0.0007     0.090     0.032     0.030  0.9980 -0.0430 -0.0462
 
              Baa    -0.0003    -0.168    -0.060    -0.056 -0.0692 -0.0886  0.9937
    32 H(1)   Bbb    -0.0003    -0.167    -0.060    -0.056 -0.0440  0.9954  0.0857
              Bcc     0.0006     0.335     0.119     0.112  0.9966  0.0377  0.0728
 
              Baa    -0.0003    -0.144    -0.052    -0.048  0.0254 -0.0123  0.9996
    33 H(1)   Bbb    -0.0003    -0.144    -0.051    -0.048  0.1564  0.9877  0.0082
              Bcc     0.0005     0.288     0.103     0.096  0.9874 -0.1562 -0.0270
 
              Baa    -0.0003    -0.153    -0.055    -0.051  0.1521 -0.3964  0.9054
    34 H(1)   Bbb    -0.0003    -0.152    -0.054    -0.051  0.0398  0.9177  0.3952
              Bcc     0.0006     0.306     0.109     0.102  0.9876  0.0241 -0.1553
 

 ---------------------------------------------------------------------------------

 No NMR shielding tensors so no spin-rotation constants.
 Leave Link  601 at Wed Jun 12 15:29:13 2019, MaxMem=  8053063680 cpu:               0.0 elap:               0.3
 (Enter /data2/g16/g16/l9999.exe)
 1\1\GINC-CU08\SP\UPBE1PBE\Gen\C10H18N1O3S2(2)\ROOT\12-Jun-2019\0\\#p g
 en 6d pbe1pbe\\start preoptimized\\0,2\O,0,-3.675982,0.170249,1.031701
 \N,0,-2.639931,0.044069,0.318221\C,0,-2.169833,-1.267829,-0.170232\C,0
 ,-0.863083,-0.863792,-0.783939\C,0,-0.596804,0.439974,-0.649188\C,0,0.
 609445,1.121076,-1.194688\S,0,1.946867,1.450161,0.033285\C,0,-1.701106
 ,1.165435,0.093041\C,0,-1.279336,1.74711,1.444311\C,0,-2.388699,2.2372
 54,-0.759614\C,0,-3.157301,-1.826744,-1.19768\C,0,-2.009442,-2.231264,
 1.009931\H,0,-0.209433,-1.577674,-1.279213\H,0,1.066089,0.534949,-1.99
 4342\H,0,0.384048,2.120395,-1.583368\H,0,-0.741815,1.00574,2.040919\H,
 0,-0.630983,2.619265,1.308761\H,0,-2.177628,2.056391,1.987322\H,0,-3.2
 98992,2.571735,-0.249646\H,0,-1.736885,3.10693,-0.899869\H,0,-2.665398
 ,1.841468,-1.741586\H,0,-3.259885,-1.148758,-2.052764\H,0,-2.813784,-2
 .802133,-1.563776\H,0,-4.139369,-1.952848,-0.731238\H,0,-2.974551,-2.3
 45814,1.51417\H,0,-1.674377,-3.212213,0.654768\H,0,-1.276209,-1.85465,
 1.727599\S,0,2.754123,-0.530188,0.105576\O,0,2.327632,-1.20849,1.34842
 4\O,0,2.498839,-1.169762,-1.208259\C,0,4.510088,-0.18258,0.238546\H,0,
 4.668952,0.430218,1.129487\H,0,4.990013,-1.157987,0.350306\H,0,4.83039
 8,0.325114,-0.670695\\Version=AM64L-G16RevB.01\State=2-A\HF=-1467.5485
 691\S2=0.75499\S2-1=0.\S2A=0.750017\RMSD=7.969e-09\Dipole=1.6374191,0.
 726464,-0.8828923\Quadrupole=2.7063177,1.3875922,-4.0939099,3.9654168,
 5.2403062,-0.4736584\PG=C01 [X(C10H18N1O3S2)]\\@


 SCIENCE IS LONG AND LIFE IS SHORT.

                     DON MOSER IN THE FEBRUARY 1979 SMITHSONIAN
 Elapsed time:       0 days  0 hours  3 minutes  0.3 seconds.
 File lengths (MBytes):  RWF=    181 Int=      0 D2E=      0 Chk=     15 Scr=      1
 Normal termination of Gaussian 16 at Wed Jun 12 15:29:14 2019.
