 Entering Gaussian System, Link 0=g16
 AtFile(1): /home/malgo/Basis_sets/n07d_pbe0.gbs
            -H 0
             6-31G
             S   1 1.00       0.000000000000
                  0.4000000000D+00  0.10000000D+01
             P   1 1.00       0.000000000000
                  0.7500000000D+00  0.10000000D+01
             ****
             -He 0
             6-31+G**
             ****
             -Li 0
             6-31+G**
             ****
             -Be 0
             6-31+G**
             ****
             -B 0
             6-31G
             S   1 1.00       0.000000000000
                  0.7000000000D+01  0.1000000000D+01
             P   1 1.00       0.000000000000
                  0.3500000000D-01  0.1000000000D+01
             D   1 1.00
                  0.3430000000D+00  0.1000000000D+01
             ****
             -C 0
             6-31G
             S   1 1.00       0.000000000000
                  0.8700000000D+01  0.1000000000D+01
             P   1 1.00       0.000000000000
                  0.5000000000D-01  0.1000000000D+01
             D   1 1.00
                  0.8200000000D+00  0.1000000000D+01
             ****
             -N 0
             6-31G
             S   1 1.00       0.000000000000
                  0.1370000000D+02  0.1000000000D+01
             P   1 1.00       0.000000000000
                  0.5300000000D-01  0.1000000000D+01
             D   1 1.00       0.000000000000
                  0.1015000000D+01  0.1000000000D+01
             ****
             -O 0
             6-31G
             S   1 1.00
                  0.1600000000D+02  0.1000000000D+01
             P   1 1.00       0.000000000000
                  0.6500000000D-01  0.1000000000D+01
             D   1 1.00        0.000000000000
                  0.1190000000D+01  0.1000000000D+01
             D   1 1.00        0.000000000000
                  0.1800000000D+00  0.1000000000D+01
             ****
             -F 0
             6-31G
             S   1 1.00
                  0.1770000000D+02  0.1000000000D+01
             P   1 1.00       0.000000000000
                  0.8300000000D-01  0.1000000000D+01
             D   1 1.00       0.000000000000
                  1.3700000000D+00  0.1000000000D+01
             D   1 1.00       0.000000000000
                  0.2300000000D+00  0.1000000000D+01
             ****
             -Ne 0
             6-31+G**
             ****
             -Na 0
             6-31+G**
             ****
             -Mg 0
             6-31+G**
             ****
             -Al 0
             6-31G
             S   1 1.00      0.000000000000
                  0.3100000000D+01  0.1000000000D+01
             P   1 1.00      0.000000000000
                  0.1500000000D-01  0.1000000000D+01
             D   1 1.00      0.000000000000
                  0.1890000000D+00  0.1000000000D+01
             ****
             -Si 0
             6-31G
             S   1 1.00      0.000000000000
                  0.5000000000D+01  0.1000000000D+01
             P   1 1.00       0.000000000000
                  0.3300000000D-01  0.1000000000D+01
             D   1 1.0        0.000000000000
                  0.2750000000D+00  0.1000000000D+01
             ****
             -P  0
             6-31G
             S   1 1.00       0.000000000000
                  0.6300000000D+01  0.1000000000D+01
             P   1 1.00       0.000000000000
                  0.3500000000D-01  0.1000000000D+01
             D   1 1.00       0.000000000000
                  0.3730000000D+00  0.1000000000D+01
             ****
             -S  0
             6-31G
             S   1  1.00      0.000000000000
                  0.7500000000D+01  0.1000000000D+01
             P   1 1.00       0.000000000000
                  0.4100000000D-01  0.1000000000D+01
             D   1 1.00       0.000000000000
                  0.4790000000D+00  0.1000000000D+01
             ****
            -Cl 0
             6-31G
             S   1 1.00       0.000000000000
                  0.8500000000D+01  0.1000000000D+01
             P   1 1.00       0.000000000000
                  0.4800000000D-01  0.1000000000D+01
             D   1 1.00       0.000000000000
                  0.6000000000D+00  0.1000000000D+01
             D   1 1.00       0.000000000000
                  0.1960000000D+00  0.1000000000D+01
             ****
            -Br 0
             S   3 1.00       0.000000000000
                  0.4721881000D+01  0.1749732514D+00
                  0.2257555000D+01 -0.7074172290D+00
                  0.3896080000D+00  0.1258999543D+01
             S   1 1.00       0.000000000000
                  0.1471340000D+00  0.1000000000D+01
             P   3 1.00       0.000000000000
                  0.1896942000D+01 -0.2464576731D+00
                  0.9108990000D+00  0.3623179892D+00
                  0.3168550000D+00  0.8338469725D+00
             P   1 1.00       0.000000000000
                  0.1095030000D+00  0.1000000000D+01
             P   1 1.00       0.000000000000
                  0.3609700000D-01  0.1000000000D+01
             D   1 1.00
                  0.4750000000D+00  0.1000000000D+01
             D   1 1.00
                  0.1280000000D+00  0.1000000000D+01
             ****
            -I   0
             S   3 1.00       0.000000000000
                  0.2122765000D+01  0.2063429899D+01
                  0.1770481000D+01 -0.2869526473D+01
                  0.3130840000D+00  0.1404747074D+01
             S   1 1.00       0.000000000000
                  0.1320000000D+00  0.1000000000D+01
             P   3 1.00       0.000000000000
                  0.2432887000D+01  0.7732753148D+00
                  0.2137249000D+01 -0.1020833156D+01
                  0.3145460000D+00  0.1095666871D+01
             P   1 1.00       0.000000000000
                  0.1049450000D+00  0.1000000000D+01
             P   1 1.00       0.000000000000
                  0.3264100000D-01  0.1000000000D+01
             D   1 1.00
                  0.300000000          1.00000000
             D   1 1.00
                  0.090000000          1.00000000
             ****
             -Zn 0
             SP   6 1.00       0.000000000000
                  0.6936492000D+02 -0.4440098182D-02 -0.7689261805D-02
                  0.2362082000D+02  0.7505253308D-01 -0.2997981924D-01
                  0.1018471000D+02  0.2533111104D+00  0.7082410821D-01
                  0.4334082000D+01 -0.2881897118D+00  0.4046140897D+00
                  0.1810918000D+01 -0.7267052298D+00  0.4882324876D+00
                  0.7148410000D+00 -0.2133439088D+00  0.1751969956D+00
             SP   3 1.00       0.000000000000
                  0.2823842000D+01  0.4898545031D-01 -0.1586762981D+00
                  0.1039543000D+01  0.2592794075D+00  0.8379326898D-01
                  0.1432640000D+00 -0.1115711463D+01  0.9840546881D+00
             SP   1 1.00       0.000000000000
                  0.4929600000D-01  0.1000000000D+01  0.1000000000D+01
             S    1 1.00       0.000000000000
                  0.1620000000D+00  0.1000000000D+01
             D    3 1.00       0.000000000000
                  0.3370764000D+02  0.9262647815D-01
                  0.9061106000D+01  0.4002979920D+00
                  0.2738383000D+01  0.6896607863D+00
             D    1 1.00
                  0.2440000000D+01  0.1000000000D+01
             D    1 1.00       0.000000000000
                  0.7302940000D+00  0.1000000000D+01
             D    1 1.00       0.000000000000
                  0.1620000000D+00  0.1000000000D+01
            ****
 Initial command:
 /data2/g16/g16/l1.exe "/tmp/Gau-26569.inp" -scrdir="/tmp/"
 Entering Link 1 = /data2/g16/g16/l1.exe PID=     26570.
  
 Copyright (c) 1988-2017, Gaussian, Inc.  All Rights Reserved.
  
 This is part of the Gaussian(R) 16 program.  It is based on
 the Gaussian(R) 09 system (copyright 2009, Gaussian, Inc.),
 the Gaussian(R) 03 system (copyright 2003, Gaussian, Inc.),
 the Gaussian(R) 98 system (copyright 1998, Gaussian, Inc.),
 the Gaussian(R) 94 system (copyright 1995, Gaussian, Inc.),
 the Gaussian 92(TM) system (copyright 1992, Gaussian, Inc.),
 the Gaussian 90(TM) system (copyright 1990, Gaussian, Inc.),
 the Gaussian 88(TM) system (copyright 1988, Gaussian, Inc.),
 the Gaussian 86(TM) system (copyright 1986, Carnegie Mellon
 University), and the Gaussian 82(TM) system (copyright 1983,
 Carnegie Mellon University). Gaussian is a federally registered
 trademark of Gaussian, Inc.
  
 This software contains proprietary and confidential information,
 including trade secrets, belonging to Gaussian, Inc.
  
 This software is provided under written license and may be
 used, copied, transmitted, or stored only in accord with that
 written license.
  
 The following legend is applicable only to US Government
 contracts under FAR:
  
                    RESTRICTED RIGHTS LEGEND
  
 Use, reproduction and disclosure by the US Government is
 subject to restrictions as set forth in subparagraphs (a)
 and (c) of the Commercial Computer Software - Restricted
 Rights clause in FAR 52.227-19.
  
 Gaussian, Inc.
 340 Quinnipiac St., Bldg. 40, Wallingford CT 06492
  
  
 ---------------------------------------------------------------
 Warning -- This program may not be used in any manner that
 competes with the business of Gaussian, Inc. or will provide
 assistance to any competitor of Gaussian, Inc.  The licensee
 of this program is prohibited from giving any competitor of
 Gaussian, Inc. access to this program.  By using this program,
 the user acknowledges that Gaussian, Inc. is engaged in the
 business of creating and licensing software in the field of
 computational chemistry and represents and warrants to the
 licensee that it is not a competitor of Gaussian, Inc. and that
 it will not use this program in any manner prohibited above.
 ---------------------------------------------------------------
  

 Cite this work as:
 Gaussian 16, Revision B.01,
 M. J. Frisch, G. W. Trucks, H. B. Schlegel, G. E. Scuseria, 
 M. A. Robb, J. R. Cheeseman, G. Scalmani, V. Barone, 
 G. A. Petersson, H. Nakatsuji, X. Li, M. Caricato, A. V. Marenich, 
 J. Bloino, B. G. Janesko, R. Gomperts, B. Mennucci, H. P. Hratchian, 
 J. V. Ortiz, A. F. Izmaylov, J. L. Sonnenberg, D. Williams-Young, 
 F. Ding, F. Lipparini, F. Egidi, J. Goings, B. Peng, A. Petrone, 
 T. Henderson, D. Ranasinghe, V. G. Zakrzewski, J. Gao, N. Rega, 
 G. Zheng, W. Liang, M. Hada, M. Ehara, K. Toyota, R. Fukuda, 
 J. Hasegawa, M. Ishida, T. Nakajima, Y. Honda, O. Kitao, H. Nakai, 
 T. Vreven, K. Throssell, J. A. Montgomery, Jr., J. E. Peralta, 
 F. Ogliaro, M. J. Bearpark, J. J. Heyd, E. N. Brothers, K. N. Kudin, 
 V. N. Staroverov, T. A. Keith, R. Kobayashi, J. Normand, 
 K. Raghavachari, A. P. Rendell, J. C. Burant, S. S. Iyengar, 
 J. Tomasi, M. Cossi, J. M. Millam, M. Klene, C. Adamo, R. Cammi, 
 J. W. Ochterski, R. L. Martin, K. Morokuma, O. Farkas, 
 J. B. Foresman, and D. J. Fox, Gaussian, Inc., Wallingford CT, 2016.
 
 ******************************************
 Gaussian 16:  AM64L-G16RevB.01 20-Dec-2017
                17-Jun-2019 
 ******************************************
 %chk=MTN_PBE0_-0.22.chk
 %mem=60GB
 %nprocshared=12
 Will use up to   12 processors via shared memory.
 -----------------
 #p gen 6d pbe1pbe
 -----------------
 1/38=1,172=1/1;
 2/12=2,17=6,18=5,40=1/2;
 3/5=7,8=2,11=2,25=1,30=1,74=-13/1,2,3;
 4//1;
 5/5=2,38=5/2;
 6/7=2,8=2,9=2,10=2,28=1/1;
 99/5=1,9=1/99;
 Leave Link    1 at Mon Jun 17 21:19:56 2019, MaxMem=  8053063680 cpu:               0.0 elap:               0.1
 (Enter /data2/g16/g16/l101.exe)
 ------------------
 start preoptimized
 ------------------
 Symbolic Z-matrix:
 Charge =  0 Multiplicity = 2
 O                    -3.75578   0.20385   0.8847 
 N                    -2.61053   0.03567   0.37702 
 C                    -2.16143  -1.26783  -0.15763 
 C                    -0.87988  -0.85119  -0.81754 
 C                    -0.6052    0.44837  -0.65759 
 C                     0.60525   1.12528  -1.19889 
 S                     1.94267   1.44176   0.03329 
 C                    -1.69271   1.16543   0.11404 
 C                    -1.23734   1.76391   1.44851 
 C                    -2.4223    2.22045  -0.72181 
 C                    -3.2077   -1.80994  -1.13468 
 C                    -1.92544  -2.25646   0.98893 
 H                    -0.23883  -1.56087  -1.33381 
 H                     1.06189   0.53915  -2.00274 
 H                     0.38825   2.1288   -1.58337 
 H                    -0.67042   1.03514   2.03672 
 H                    -0.60578   2.64447   1.29196 
 H                    -2.12303   2.06899   2.01672 
 H                    -3.31579   2.54654  -0.18245 
 H                    -1.78309   3.09433  -0.89147 
 H                    -2.7284    1.81207  -1.69119 
 H                    -3.36069  -1.11936  -1.96876 
 H                    -2.88938  -2.77693  -1.53438 
 H                    -4.16037  -1.94025  -0.60944 
 H                    -2.85695  -2.40041   1.54777 
 H                    -1.59878  -3.22481   0.59597 
 H                    -1.15441  -1.88405   1.673 
 S                     2.75832  -0.53439   0.10978 
 O                     2.33603  -1.21269   1.35262 
 O                     2.50724  -1.18236  -1.20406 
 C                     4.51009  -0.16998   0.24695 
 H                     4.66055   0.44702   1.13369 
 H                     4.99841  -1.14119   0.36291 
 H                     4.8304    0.33351  -0.6665 
 
 ITRead=  0  0  0  0  0  0  0  0  0  0  0  0  0  0  0  0  0  0  0  0
 ITRead=  0  0  0  0  0  0  0  0  0  0  0  0  0  0
 MicOpt= -1 -1 -1 -1 -1 -1 -1 -1 -1 -1 -1 -1 -1 -1 -1 -1 -1 -1 -1 -1
 MicOpt= -1 -1 -1 -1 -1 -1 -1 -1 -1 -1 -1 -1 -1 -1
 NAtoms=     34 NQM=       34 NQMF=       0 NMMI=      0 NMMIF=      0
                NMic=       0 NMicF=      0.
                    Isotopes and Nuclear Properties:
 (Nuclear quadrupole moments (NQMom) in fm**2, nuclear magnetic moments (NMagM)
  in nuclear magnetons)

  Atom         1           2           3           4           5           6           7           8           9          10
 IAtWgt=          16          14          12          12          12          12          32          12          12          12
 AtmWgt=  15.9949146  14.0030740  12.0000000  12.0000000  12.0000000  12.0000000  31.9720718  12.0000000  12.0000000  12.0000000
 NucSpn=           0           2           0           0           0           0           0           0           0           0
 AtZEff=   0.0000000   0.0000000   0.0000000   0.0000000   0.0000000   0.0000000   0.0000000   0.0000000   0.0000000   0.0000000
 NQMom=    0.0000000   2.0440000   0.0000000   0.0000000   0.0000000   0.0000000   0.0000000   0.0000000   0.0000000   0.0000000
 NMagM=    0.0000000   0.4037610   0.0000000   0.0000000   0.0000000   0.0000000   0.0000000   0.0000000   0.0000000   0.0000000
 AtZNuc=   8.0000000   7.0000000   6.0000000   6.0000000   6.0000000   6.0000000  16.0000000   6.0000000   6.0000000   6.0000000

  Atom        11          12          13          14          15          16          17          18          19          20
 IAtWgt=          12          12           1           1           1           1           1           1           1           1
 AtmWgt=  12.0000000  12.0000000   1.0078250   1.0078250   1.0078250   1.0078250   1.0078250   1.0078250   1.0078250   1.0078250
 NucSpn=           0           0           1           1           1           1           1           1           1           1
 AtZEff=   0.0000000   0.0000000   0.0000000   0.0000000   0.0000000   0.0000000   0.0000000   0.0000000   0.0000000   0.0000000
 NQMom=    0.0000000   0.0000000   0.0000000   0.0000000   0.0000000   0.0000000   0.0000000   0.0000000   0.0000000   0.0000000
 NMagM=    0.0000000   0.0000000   2.7928460   2.7928460   2.7928460   2.7928460   2.7928460   2.7928460   2.7928460   2.7928460
 AtZNuc=   6.0000000   6.0000000   1.0000000   1.0000000   1.0000000   1.0000000   1.0000000   1.0000000   1.0000000   1.0000000

  Atom        21          22          23          24          25          26          27          28          29          30
 IAtWgt=           1           1           1           1           1           1           1          32          16          16
 AtmWgt=   1.0078250   1.0078250   1.0078250   1.0078250   1.0078250   1.0078250   1.0078250  31.9720718  15.9949146  15.9949146
 NucSpn=           1           1           1           1           1           1           1           0           0           0
 AtZEff=   0.0000000   0.0000000   0.0000000   0.0000000   0.0000000   0.0000000   0.0000000   0.0000000   0.0000000   0.0000000
 NQMom=    0.0000000   0.0000000   0.0000000   0.0000000   0.0000000   0.0000000   0.0000000   0.0000000   0.0000000   0.0000000
 NMagM=    2.7928460   2.7928460   2.7928460   2.7928460   2.7928460   2.7928460   2.7928460   0.0000000   0.0000000   0.0000000
 AtZNuc=   1.0000000   1.0000000   1.0000000   1.0000000   1.0000000   1.0000000   1.0000000  16.0000000   8.0000000   8.0000000

  Atom        31          32          33          34
 IAtWgt=          12           1           1           1
 AtmWgt=  12.0000000   1.0078250   1.0078250   1.0078250
 NucSpn=           0           1           1           1
 AtZEff=   0.0000000   0.0000000   0.0000000   0.0000000
 NQMom=    0.0000000   0.0000000   0.0000000   0.0000000
 NMagM=    0.0000000   2.7928460   2.7928460   2.7928460
 AtZNuc=   6.0000000   1.0000000   1.0000000   1.0000000
 Leave Link  101 at Mon Jun 17 21:19:56 2019, MaxMem=  8053063680 cpu:               0.0 elap:               0.2
 (Enter /data2/g16/g16/l202.exe)
                          Input orientation:                          
 ---------------------------------------------------------------------
 Center     Atomic      Atomic             Coordinates (Angstroms)
 Number     Number       Type             X           Y           Z
 ---------------------------------------------------------------------
      1          8           0       -3.755782    0.203849    0.884701
      2          7           0       -2.610531    0.035669    0.377021
      3          6           0       -2.161433   -1.267829   -0.157632
      4          6           0       -0.879883   -0.851192   -0.817539
      5          6           0       -0.605204    0.448374   -0.657588
      6          6           0        0.605245    1.125276   -1.198888
      7         16           0        1.942667    1.441761    0.033285
      8          6           0       -1.692706    1.165435    0.114041
      9          6           0       -1.237336    1.763910    1.448511
     10          6           0       -2.422299    2.220454   -0.721814
     11          6           0       -3.207701   -1.809944   -1.134680
     12          6           0       -1.925442   -2.256464    0.988931
     13          1           0       -0.238833   -1.560874   -1.333813
     14          1           0        1.061889    0.539149   -2.002742
     15          1           0        0.388248    2.128795   -1.583368
     16          1           0       -0.670415    1.035140    2.036719
     17          1           0       -0.605783    2.644465    1.291961
     18          1           0       -2.123028    2.068991    2.016722
     19          1           0       -3.315792    2.546535   -0.182446
     20          1           0       -1.783085    3.094330   -0.891469
     21          1           0       -2.728398    1.812068   -1.691186
     22          1           0       -3.360685   -1.119358   -1.968764
     23          1           0       -2.889384   -2.776933   -1.534376
     24          1           0       -4.160369   -1.940248   -0.609438
     25          1           0       -2.856951   -2.400414    1.547770
     26          1           0       -1.598777   -3.224813    0.595968
     27          1           0       -1.154409   -1.884050    1.672999
     28         16           0        2.758323   -0.534388    0.109776
     29          8           0        2.336032   -1.212690    1.352624
     30          8           0        2.507239   -1.182362   -1.204059
     31          6           0        4.510088   -0.169980    0.246946
     32          1           0        4.660552    0.447018    1.133687
     33          1           0        4.998413   -1.141187    0.362906
     34          1           0        4.830398    0.333514   -0.666495
 ---------------------------------------------------------------------
                    Distance matrix (angstroms):
                    1          2          3          4          5
     1  O    0.000000
     2  N    1.263971   0.000000
     3  C    2.407123   1.478733   0.000000
     4  C    3.504501   2.282244   1.500478   0.000000
     5  C    3.516332   2.293922   2.370054   1.337873   0.000000
     6  C    4.920257   3.743254   3.803376   2.501491   1.488754
     7  S    5.893187   4.777746   4.921581   3.734745   2.820597
     8  C    2.403091   1.479166   2.492847   2.365440   1.514017
     9  C    3.015666   2.453685   3.553181   3.478723   2.562397
    10  C    2.902717   2.452785   3.543229   3.438491   2.538942
    11  C    2.904076   2.459296   1.530748   2.537424   3.478593
    12  C    3.068248   2.469343   1.532220   2.516211   3.430773
    13  H    4.517187   3.331794   2.272811   1.086799   2.151415
    14  H    5.626696   4.404933   4.130303   2.666127   2.144033
    15  H    5.193242   4.149335   4.480028   3.327908   2.160516
    16  H    3.396716   2.741822   3.513115   3.427669   2.758231
    17  H    4.005616   3.414959   4.452798   4.092034   2.936589
    18  H    2.725089   2.657193   3.982921   4.255104   3.475935
    19  H    2.611622   2.667367   3.985290   4.228658   3.460539
    20  H    3.924435   3.413084   4.439605   4.048257   2.905716
    21  H    3.205789   2.728913   3.486976   3.357562   2.726892
    22  H    3.170054   2.720207   2.177257   2.748019   3.430691
    23  H    3.935434   3.412027   2.168578   2.874096   4.048313
    24  H    2.644484   2.698027   2.156854   3.462793   4.283344
    25  H    2.833680   2.714015   2.162149   3.450156   4.248478
    26  H    4.061005   3.420866   2.171240   2.854626   4.006357
    27  H    3.427518   2.735904   2.178310   2.710155   3.342673
    28  S    6.601444   5.405643   4.981309   3.767867   3.587197
    29  O    6.271821   5.194101   4.744587   3.896460   3.930770
    30  O    6.746105   5.493176   4.785270   3.425152   3.556013
    31  C    8.298861   7.124776   6.773341   5.536151   5.231324
    32  H    8.423527   7.321912   7.151761   6.015734   5.562091
    33  H    8.872278   7.699430   7.179860   6.002659   5.913428
    34  H    8.726139   7.519645   7.190893   5.833837   5.436823
                    6          7          8          9         10
     6  C    0.000000
     7  S    1.845836   0.000000
     8  C    2.646880   3.646754   0.000000
     9  C    3.288112   3.495578   1.531778   0.000000
    10  C    3.254695   4.497718   1.531021   2.514534   0.000000
    11  C    4.812296   6.201937   3.564743   4.829870   4.126914
    12  C    4.756795   5.436211   3.539632   4.104645   4.818331
    13  H    2.818878   3.955214   3.412153   4.448879   4.409139
    14  H    1.094646   2.394971   3.529986   4.324075   4.075185
    15  H    1.096341   2.345592   2.853004   3.459473   2.941063
    16  H    3.479164   3.317723   2.181455   1.094757   3.476143
    17  H    3.158932   3.086318   2.180923   1.094872   2.744960
    18  H    4.321368   4.566981   2.149834   1.095622   2.759000
    19  H    4.292745   5.377588   2.151685   2.755450   1.093424
    20  H    3.110595   4.179400   2.177121   2.746519   1.095918
    21  H    3.439072   4.992973   2.179366   3.476102   1.095517
    22  H    4.621655   6.220376   3.512906   4.949708   3.686434
    23  H    5.249021   6.603307   4.437520   5.678568   5.084516
    24  H    5.697014   7.007006   4.032127   5.147821   4.510538
    25  H    5.653443   6.331849   4.015759   4.469295   5.166464
    26  H    5.196393   5.885181   4.417619   5.073936   5.662656
    27  H    4.516654   4.831310   3.466911   3.655801   4.918295
    28  S    3.017090   2.139231   4.764565   4.799966   5.926174
    29  O    3.869357   2.990234   4.839452   4.651699   6.223462
    30  O    2.990452   2.955636   4.988895   5.453301   6.009331
    31  C    4.360725   3.038916   6.346310   6.181955   7.396665
    32  H    4.727204   3.096336   6.474542   6.051314   7.533574
    33  H    5.184205   4.014705   7.081914   6.964387   8.218529
    34  H    4.331541   3.171261   6.622100   6.583060   7.494346
                   11         12         13         14         15
    11  C    0.000000
    12  C    2.520574   0.000000
    13  H    2.985945   2.953580   0.000000
    14  H    4.949865   5.068501   2.559187   0.000000
    15  H    5.352180   5.585730   3.750889   1.776694   0.000000
    16  H    4.958840   3.675270   4.276218   4.423136   3.927070
    17  H    5.700905   5.084529   4.971340   4.250712   3.085698
    18  H    5.114097   4.450276   5.286984   5.351654   4.389844
    19  H    4.460644   5.135562   5.259670   5.148511   3.982085
    20  H    5.112787   5.673373   4.924562   3.982180   2.475009
    21  H    3.695727   4.937683   4.207420   4.010445   3.134553
    22  H    1.093622   3.478634   3.216218   4.723448   4.975292
    23  H    1.093687   2.750845   2.923088   5.179607   5.900122
    24  H    1.095643   2.765805   4.005882   5.946485   6.180256
    25  H    2.768974   1.095779   3.982824   6.050163   6.391328
    26  H    2.754203   1.094911   2.888286   5.291488   6.112192
    27  H    3.479161   1.095962   3.159690   4.928990   5.393203
    28  S    6.226488   5.067160   3.481460   2.914293   3.946712
    29  O    6.105438   4.402488   3.737393   3.993853   4.855866
    30  O    5.749714   5.060787   2.775071   2.385483   3.949400
    31  C    8.010159   6.805880   5.194770   4.177803   5.062014
    32  H    8.494043   7.120750   5.841589   4.774521   5.335105
    33  H    8.368411   7.040988   5.521208   4.890403   5.977825
    34  H    8.332145   7.422250   5.452625   4.003686   4.878154
                   16         17         18         19         20
    16  H    0.000000
    17  H    1.774477   0.000000
    18  H    1.783068   1.777212   0.000000
    19  H    3.769221   3.086684   2.546974   0.000000
    20  H    3.748677   2.521068   3.102331   1.775383   0.000000
    21  H    4.328532   3.754670   3.765775   1.777855   1.782515
    22  H    5.284251   5.691061   5.251806   4.078200   4.626505
    23  H    5.675248   6.526452   6.056449   5.508979   6.009073
    24  H    5.294796   6.104915   5.207828   4.585505   5.574764
    25  H    4.101590   5.530280   4.553476   5.260845   6.106987
    26  H    4.591821   5.993235   5.506155   6.071452   6.494460
    27  H    2.981311   4.577513   4.084471   5.267289   5.635246
    28  S    4.234710   4.777015   5.851633   6.817063   5.898684
    29  O    3.815685   4.851350   5.576170   6.959262   6.368163
    30  O    5.051479   5.528619   6.510307   6.989711   6.065862
    31  C    5.611881   5.931719   7.221034   8.295073   7.180232
    32  H    5.438802   5.708600   7.030470   8.352379   7.254652
    33  H    6.298703   6.826516   7.984690   9.111680   8.093317
    34  H    6.169164   6.223191   7.652560   8.455305   7.170138
                   21         22         23         24         25
    21  H    0.000000
    22  H    3.011660   0.000000
    23  H    4.594501   1.777181   0.000000
    24  H    4.159398   1.777954   1.780718   0.000000
    25  H    5.315296   3.776356   3.105228   2.562069   0.000000
    26  H    5.645997   3.757008   2.530737   3.108837   1.780046
    27  H    5.239892   4.326066   3.754282   3.774715   1.783526
    28  S    6.233252   6.488819   6.295144   7.096620   6.089432
    29  O    6.637951   6.594916   6.171434   6.825119   5.330651
    30  O    6.051099   5.917878   5.636959   6.736836   6.150671
    31  C    7.751164   8.231631   8.044967   8.890673   7.806423
    32  H    8.027444   8.741795   8.632147   9.303019   8.049359
    33  H    8.523181   8.678230   8.276031   9.244849   8.043401
    34  H    7.769911   8.420248   8.367983   9.274003   8.454151
                   26         27         28         29         30
    26  H    0.000000
    27  H    1.776261   0.000000
    28  S    5.143840   4.424333   0.000000
    29  O    4.483736   3.568829   1.477530   0.000000
    30  O    4.926568   4.709299   1.486296   2.562588   0.000000
    31  C    6.839010   6.087544   1.794516   2.652600   2.672403
    32  H    7.276722   6.287965   2.372768   2.864604   3.571651
    33  H    6.922336   6.334462   2.334584   2.841290   2.943301
    34  H    7.455856   6.797701   2.376835   3.562225   2.825584
                   31         32         33         34
    31  C    0.000000
    32  H    1.090704   0.000000
    33  H    1.093230   1.797400   0.000000
    34  H    1.091091   1.811736   1.806278   0.000000
 Stoichiometry    C10H18NO3S2(2)
 Framework group  C1[X(C10H18NO3S2)]
 Deg. of freedom    96
 Full point group                 C1      NOp   1
 Largest Abelian subgroup         C1      NOp   1
 Largest concise Abelian subgroup C1      NOp   1
                         Standard orientation:                         
 ---------------------------------------------------------------------
 Center     Atomic      Atomic             Coordinates (Angstroms)
 Number     Number       Type             X           Y           Z
 ---------------------------------------------------------------------
      1          8           0       -3.754168    0.196840    0.892532
      2          7           0       -2.609721    0.030519    0.382433
      3          6           0       -2.159272   -1.272493   -0.152268
      4          6           0       -0.880004   -0.853845   -0.815323
      5          6           0       -0.607503    0.446370   -0.656927
      6          6           0        0.600420    1.125232   -1.201406
      7         16           0        1.939954    1.445221    0.027564
      8          6           0       -1.694685    1.161877    0.116594
      9          6           0       -1.237522    1.762213    1.449614
     10          6           0       -2.428186    2.214862   -0.718406
     11          6           0       -3.206647   -1.817359   -1.126596
     12          6           0       -1.918811   -2.259828    0.994486
     13          1           0       -0.238720   -1.562655   -1.332503
     14          1           0        1.056420    0.539407   -2.005846
     15          1           0        0.380615    2.128045   -1.586132
     16          1           0       -0.667878    1.034979    2.037091
     17          1           0       -0.608035    2.643881    1.291021
     18          1           0       -2.122543    2.065985    2.019568
     19          1           0       -3.321113    2.539597   -0.177292
     20          1           0       -1.791054    3.089856   -0.890115
     21          1           0       -2.735639    1.805172   -1.686798
     22          1           0       -3.362828   -1.127682   -1.960840
     23          1           0       -2.887335   -2.784018   -1.526295
     24          1           0       -4.157892   -1.949133   -0.599145
     25          1           0       -2.848795   -2.405183    1.555497
     26          1           0       -1.591132   -3.227826    0.601503
     27          1           0       -1.146989   -1.885413    1.676569
     28         16           0        2.759627   -0.529280    0.103680
     29          8           0        2.341418   -1.207493    1.347955
     30          8           0        2.506891   -1.178702   -1.209123
     31          6           0        4.510979   -0.161362    0.236694
     32          1           0        4.662208    0.456577    1.122650
     33          1           0        5.001451   -1.131531    0.352275
     34          1           0        4.828279    0.342087   -0.677822
 ---------------------------------------------------------------------
 Rotational constants (GHZ):           0.7792367           0.2770668           0.2423838
 Leave Link  202 at Mon Jun 17 21:19:56 2019, MaxMem=  8053063680 cpu:               0.0 elap:               0.1
 (Enter /data2/g16/g16/l301.exe)
 General basis read from cards:  (6D, 7F)
 Centers:      13     14     15     16     17     18     19     20     21     22
 Centers:      23     24     25     26     27     32     33     34
 6-31G
 S 1 1.00 0.000000000000
     Exponent=  4.0000000000D-01 Coefficients=  1.0000000000D+00
 P 1 1.00 0.000000000000
     Exponent=  7.5000000000D-01 Coefficients=  1.0000000000D+00
 ****
 Centers:       3      4      5      6      8      9     10     11     12     31
 6-31G
 S 1 1.00 0.000000000000
     Exponent=  8.7000000000D+00 Coefficients=  1.0000000000D+00
 P 1 1.00 0.000000000000
     Exponent=  5.0000000000D-02 Coefficients=  1.0000000000D+00
 D 1 1.00
     Exponent=  8.2000000000D-01 Coefficients=  1.0000000000D+00
 ****
 Centers:       2
 6-31G
 S 1 1.00 0.000000000000
     Exponent=  1.3700000000D+01 Coefficients=  1.0000000000D+00
 P 1 1.00 0.000000000000
     Exponent=  5.3000000000D-02 Coefficients=  1.0000000000D+00
 D 1 1.00 0.000000000000
     Exponent=  1.0150000000D+00 Coefficients=  1.0000000000D+00
 ****
 Centers:       1     29     30
 6-31G
 S 1 1.00
     Exponent=  1.6000000000D+01 Coefficients=  1.0000000000D+00
 P 1 1.00 0.000000000000
     Exponent=  6.5000000000D-02 Coefficients=  1.0000000000D+00
 D 1 1.00 0.000000000000
     Exponent=  1.1900000000D+00 Coefficients=  1.0000000000D+00
 D 1 1.00 0.000000000000
     Exponent=  1.8000000000D-01 Coefficients=  1.0000000000D+00
 ****
 Centers:       7     28
 6-31G
 S 1 1.00 0.000000000000
     Exponent=  7.5000000000D+00 Coefficients=  1.0000000000D+00
 P 1 1.00 0.000000000000
     Exponent=  4.1000000000D-02 Coefficients=  1.0000000000D+00
 D 1 1.00 0.000000000000
     Exponent=  4.7900000000D-01 Coefficients=  1.0000000000D+00
 ****
 Ernie: Thresh=  0.10000D-02 Tol=  0.10000D-05 Strict=F.
 There are   438 symmetry adapted cartesian basis functions of A   symmetry.
 There are   438 symmetry adapted basis functions of A   symmetry.
   438 basis functions,   722 primitive gaussians,   438 cartesian basis functions
    71 alpha electrons       70 beta electrons
       nuclear repulsion energy      1520.8557479747 Hartrees.
 IExCor= 1009 DFT=T Ex+Corr=PBE1PBE ExCW=0 ScaHFX=  0.250000
 ScaDFX=  0.750000  0.750000  1.000000  1.000000 ScalE2=  1.000000  1.000000
 IRadAn=      5 IRanWt=     -1 IRanGd=            0 ICorTp=0 IEmpDi=  4
 NAtoms=   34 NActive=   34 NUniq=   34 SFac= 1.00D+00 NAtFMM=   60 NAOKFM=F Big=F
 Integral buffers will be    131072 words long.
 Raffenetti 2 integral format.
 Two-electron integral symmetry is turned on.
 Leave Link  301 at Mon Jun 17 21:19:56 2019, MaxMem=  8053063680 cpu:               0.0 elap:               0.2
 (Enter /data2/g16/g16/l302.exe)
 NPDir=0 NMtPBC=     1 NCelOv=     1 NCel=       1 NClECP=     1 NCelD=      1
         NCelK=      1 NCelE2=     1 NClLst=     1 CellRange=     0.0.
 One-electron integrals computed using PRISM.
 One-electron integral symmetry used in STVInt
 NBasis=   438 RedAO= T EigKep=  6.47D-05  NBF=   438
 NBsUse=   438 1.00D-06 EigRej= -1.00D+00 NBFU=   438
 Precomputing XC quadrature grid using
 IXCGrd= 4 IRadAn=           5 IRanWt=          -1 IRanGd=           0 AccXCQ= 0.00D+00.
 Generated NRdTot=       0 NPtTot=           0 NUsed=           0 NTot=          32
 NSgBfM=   433   433   433   433   433 MxSgAt=    34 MxSgA2=    34.
 Leave Link  302 at Mon Jun 17 21:19:57 2019, MaxMem=  8053063680 cpu:               0.0 elap:               0.5
 (Enter /data2/g16/g16/l303.exe)
 DipDrv:  MaxL=1.
 Leave Link  303 at Mon Jun 17 21:19:57 2019, MaxMem=  8053063680 cpu:               0.0 elap:               0.1
 (Enter /data2/g16/g16/l401.exe)
 ExpMin= 4.10D-02 ExpMax= 2.19D+04 ExpMxC= 3.30D+03 IAcc=3 IRadAn=         5 AccDes= 0.00D+00
 Harris functional with IExCor= 1009 and IRadAn=       5 diagonalized for initial guess.
 HarFok:  IExCor= 1009 AccDes= 0.00D+00 IRadAn=         5 IDoV= 1 UseB2=F ITyADJ=14
 ICtDFT=  3500011 ScaDFX=  1.000000  1.000000  1.000000  1.000000
 FoFCou: FMM=F IPFlag=           0 FMFlag=      100000 FMFlg1=           0
         NFxFlg=           0 DoJE=T BraDBF=F KetDBF=T FulRan=T
         wScrn=  0.000000 ICntrl=       500 IOpCl=  0 I1Cent=   200000004 NGrid=           0
         NMat0=    1 NMatS0=      1 NMatT0=    0 NMatD0=    1 NMtDS0=    0 NMtDT0=    0
 Petite list used in FoFCou.
 Harris En= -1467.69866081611    
 JPrj=0 DoOrth=F DoCkMO=F.
 Initial guess <Sx>= 0.0000 <Sy>= 0.0000 <Sz>= 0.5000 <S**2>= 0.7500 S= 0.5000
 Leave Link  401 at Mon Jun 17 21:19:58 2019, MaxMem=  8053063680 cpu:               0.0 elap:               1.6
 (Enter /data2/g16/g16/l502.exe)
 Integral symmetry usage will be decided dynamically.
 UHF open shell SCF:
 Using DIIS extrapolation, IDIIS=  1040.
 NGot=  8053063680 LenX=  8052670277 LenY=  8052477992
 Requested convergence on RMS density matrix=1.00D-08 within 128 cycles.
 Requested convergence on MAX density matrix=1.00D-06.
 Requested convergence on             energy=1.00D-06.
 No special actions if energy rises.
 Fock matrices will be formed incrementally for  20 cycles.

 Cycle   1  Pass 1  IDiag  1:
 FoFJK:  IHMeth= 1 ICntrl=       0 DoSepK=F KAlg= 0 I1Cent=           0 FoldK=F
 IRaf= 840000000 NMat=       1 IRICut=       1 DoRegI=T DoRafI=F ISym2E= 0 IDoP0=0 IntGTp=1.
 FoFCou: FMM=F IPFlag=           0 FMFlag=      100000 FMFlg1=           0
         NFxFlg=           0 DoJE=F BraDBF=F KetDBF=F FulRan=T
         wScrn=  0.000000 ICntrl=         0 IOpCl=  1 I1Cent=           0 NGrid=           0
         NMat0=    1 NMatS0=      1 NMatT0=    0 NMatD0=    1 NMtDS0=    0 NMtDT0=    0
 Symmetry not used in FoFCou.
 E= -1466.93552995604    
 DIIS: error= 2.53D-02 at cycle   1 NSaved=   1.
 NSaved= 1 IEnMin= 1 EnMin= -1466.93552995604     IErMin= 1 ErrMin= 2.53D-02
 ErrMax= 2.53D-02  0.00D+00 EMaxC= 1.00D-01 BMatC= 2.97D+00 BMatP= 2.97D+00
 IDIUse=3 WtCom= 7.47D-01 WtEn= 2.53D-01
 Coeff-Com:  0.100D+01
 Coeff-En:   0.100D+01
 Coeff:      0.100D+01
 Gap=     0.224 Goal=   None    Shift=    0.000
 Gap=     0.366 Goal=   None    Shift=    0.000
 GapD=    0.224 DampG=1.000 DampE=0.500 DampFc=0.5000 IDamp=-1.
 Damping current iteration by 5.00D-01
 RMSDP=4.75D-03 MaxDP=4.12D-01              OVMax= 2.96D-01

 Cycle   2  Pass 1  IDiag  1:
 RMSU=  2.37D-03    CP:  9.92D-01
 E= -1467.06169315844     Delta-E=       -0.126163202399 Rises=F Damp=T
 DIIS: error= 1.03D-02 at cycle   2 NSaved=   2.
 NSaved= 2 IEnMin= 2 EnMin= -1467.06169315844     IErMin= 2 ErrMin= 1.03D-02
 ErrMax= 1.03D-02  0.00D+00 EMaxC= 1.00D-01 BMatC= 5.24D-01 BMatP= 2.97D+00
 IDIUse=3 WtCom= 8.97D-01 WtEn= 1.03D-01
 Coeff-Com:  0.227D+00 0.773D+00
 Coeff-En:   0.395D+00 0.605D+00
 Coeff:      0.244D+00 0.756D+00
 Gap=     0.127 Goal=   None    Shift=    0.000
 Gap=     0.185 Goal=   None    Shift=    0.000
 RMSDP=1.67D-03 MaxDP=1.19D-01 DE=-1.26D-01 OVMax= 2.85D-01

 Cycle   3  Pass 1  IDiag  1:
 RMSU=  1.39D-03    CP:  9.82D-01  6.10D-01
 E= -1467.46593683734     Delta-E=       -0.404243678904 Rises=F Damp=F
 DIIS: error= 8.15D-03 at cycle   3 NSaved=   3.
 NSaved= 3 IEnMin= 3 EnMin= -1467.46593683734     IErMin= 3 ErrMin= 8.15D-03
 ErrMax= 8.15D-03  0.00D+00 EMaxC= 1.00D-01 BMatC= 3.57D-01 BMatP= 5.24D-01
 IDIUse=3 WtCom= 9.19D-01 WtEn= 8.15D-02
 Coeff-Com:  0.532D-01 0.446D+00 0.501D+00
 Coeff-En:   0.000D+00 0.000D+00 0.100D+01
 Coeff:      0.488D-01 0.410D+00 0.541D+00
 Gap=     0.144 Goal=   None    Shift=    0.000
 Gap=     0.223 Goal=   None    Shift=    0.000
 RMSDP=9.30D-04 MaxDP=6.40D-02 DE=-4.04D-01 OVMax= 1.08D-01

 Cycle   4  Pass 1  IDiag  1:
 RMSU=  6.20D-04    CP:  9.87D-01  7.33D-01  5.50D-01
 E= -1467.53886030469     Delta-E=       -0.072923467344 Rises=F Damp=F
 DIIS: error= 2.27D-03 at cycle   4 NSaved=   4.
 NSaved= 4 IEnMin= 4 EnMin= -1467.53886030469     IErMin= 4 ErrMin= 2.27D-03
 ErrMax= 2.27D-03  0.00D+00 EMaxC= 1.00D-01 BMatC= 4.17D-02 BMatP= 3.57D-01
 IDIUse=3 WtCom= 9.77D-01 WtEn= 2.27D-02
 Coeff-Com: -0.132D-01 0.695D-01 0.275D+00 0.669D+00
 Coeff-En:   0.000D+00 0.000D+00 0.865D-01 0.914D+00
 Coeff:     -0.129D-01 0.679D-01 0.271D+00 0.674D+00
 Gap=     0.143 Goal=   None    Shift=    0.000
 Gap=     0.202 Goal=   None    Shift=    0.000
 RMSDP=3.09D-04 MaxDP=1.72D-02 DE=-7.29D-02 OVMax= 3.13D-02

 Cycle   5  Pass 1  IDiag  1:
 RMSU=  2.03D-04    CP:  9.86D-01  7.22D-01  6.55D-01  7.12D-01
 E= -1467.54755701147     Delta-E=       -0.008696706777 Rises=F Damp=F
 DIIS: error= 8.85D-04 at cycle   5 NSaved=   5.
 NSaved= 5 IEnMin= 5 EnMin= -1467.54755701147     IErMin= 5 ErrMin= 8.85D-04
 ErrMax= 8.85D-04  0.00D+00 EMaxC= 1.00D-01 BMatC= 3.99D-03 BMatP= 4.17D-02
 IDIUse=3 WtCom= 9.91D-01 WtEn= 8.85D-03
 Coeff-Com: -0.945D-02 0.169D-01 0.125D+00 0.376D+00 0.492D+00
 Coeff-En:   0.000D+00 0.000D+00 0.000D+00 0.000D+00 0.100D+01
 Coeff:     -0.937D-02 0.167D-01 0.124D+00 0.372D+00 0.496D+00
 Gap=     0.144 Goal=   None    Shift=    0.000
 Gap=     0.205 Goal=   None    Shift=    0.000
 RMSDP=1.10D-04 MaxDP=5.36D-03 DE=-8.70D-03 OVMax= 1.25D-02

 Cycle   6  Pass 1  IDiag  1:
 RMSU=  6.98D-05    CP:  9.85D-01  7.24D-01  6.52D-01  7.69D-01  6.26D-01
 E= -1467.54842126925     Delta-E=       -0.000864257787 Rises=F Damp=F
 DIIS: error= 2.45D-04 at cycle   6 NSaved=   6.
 NSaved= 6 IEnMin= 6 EnMin= -1467.54842126925     IErMin= 6 ErrMin= 2.45D-04
 ErrMax= 2.45D-04  0.00D+00 EMaxC= 1.00D-01 BMatC= 4.06D-04 BMatP= 3.99D-03
 IDIUse=3 WtCom= 9.98D-01 WtEn= 2.45D-03
 Coeff-Com: -0.317D-02 0.177D-02 0.348D-01 0.117D+00 0.272D+00 0.577D+00
 Coeff-En:   0.000D+00 0.000D+00 0.000D+00 0.000D+00 0.437D-01 0.956D+00
 Coeff:     -0.316D-02 0.177D-02 0.347D-01 0.117D+00 0.272D+00 0.578D+00
 Gap=     0.146 Goal=   None    Shift=    0.000
 Gap=     0.205 Goal=   None    Shift=    0.000
 RMSDP=3.59D-05 MaxDP=2.47D-03 DE=-8.64D-04 OVMax= 5.19D-03

 Cycle   7  Pass 1  IDiag  1:
 RMSU=  2.54D-05    CP:  9.85D-01  7.21D-01  6.58D-01  7.71D-01  6.70D-01
                    CP:  6.98D-01
 E= -1467.54851520285     Delta-E=       -0.000093933596 Rises=F Damp=F
 DIIS: error= 1.15D-04 at cycle   7 NSaved=   7.
 NSaved= 7 IEnMin= 7 EnMin= -1467.54851520285     IErMin= 7 ErrMin= 1.15D-04
 ErrMax= 1.15D-04  0.00D+00 EMaxC= 1.00D-01 BMatC= 6.63D-05 BMatP= 4.06D-04
 IDIUse=3 WtCom= 9.99D-01 WtEn= 1.15D-03
 Coeff-Com: -0.626D-04-0.237D-02-0.266D-02-0.631D-04 0.596D-01 0.328D+00
 Coeff-Com:  0.617D+00
 Coeff-En:   0.000D+00 0.000D+00 0.000D+00 0.000D+00 0.000D+00 0.698D-01
 Coeff-En:   0.930D+00
 Coeff:     -0.625D-04-0.236D-02-0.265D-02-0.630D-04 0.595D-01 0.328D+00
 Coeff:      0.617D+00
 Gap=     0.146 Goal=   None    Shift=    0.000
 Gap=     0.206 Goal=   None    Shift=    0.000
 RMSDP=1.50D-05 MaxDP=9.70D-04 DE=-9.39D-05 OVMax= 1.16D-03

 Cycle   8  Pass 1  IDiag  1:
 RMSU=  1.04D-05    CP:  9.85D-01  7.22D-01  6.57D-01  7.70D-01  7.03D-01
                    CP:  7.93D-01  7.97D-01
 E= -1467.54853131540     Delta-E=       -0.000016112549 Rises=F Damp=F
 DIIS: error= 3.52D-05 at cycle   8 NSaved=   8.
 NSaved= 8 IEnMin= 8 EnMin= -1467.54853131540     IErMin= 8 ErrMin= 3.52D-05
 ErrMax= 3.52D-05  0.00D+00 EMaxC= 1.00D-01 BMatC= 4.93D-06 BMatP= 6.63D-05
 IDIUse=1 WtCom= 1.00D+00 WtEn= 0.00D+00
 Coeff-Com:  0.444D-03-0.120D-02-0.527D-02-0.147D-01-0.155D-01 0.675D-01
 Coeff-Com:  0.221D+00 0.747D+00
 Coeff:      0.444D-03-0.120D-02-0.527D-02-0.147D-01-0.155D-01 0.675D-01
 Coeff:      0.221D+00 0.747D+00
 Gap=     0.146 Goal=   None    Shift=    0.000
 Gap=     0.205 Goal=   None    Shift=    0.000
 RMSDP=5.09D-06 MaxDP=6.11D-04 DE=-1.61D-05 OVMax= 1.17D-03

 Cycle   9  Pass 1  IDiag  1:
 RMSU=  4.19D-06    CP:  9.85D-01  7.22D-01  6.57D-01  7.72D-01  7.02D-01
                    CP:  8.23D-01  8.39D-01  9.08D-01
 E= -1467.54853275811     Delta-E=       -0.000001442714 Rises=F Damp=F
 DIIS: error= 2.31D-05 at cycle   9 NSaved=   9.
 NSaved= 9 IEnMin= 9 EnMin= -1467.54853275811     IErMin= 9 ErrMin= 2.31D-05
 ErrMax= 2.31D-05  0.00D+00 EMaxC= 1.00D-01 BMatC= 2.99D-06 BMatP= 4.93D-06
 IDIUse=1 WtCom= 1.00D+00 WtEn= 0.00D+00
 Coeff-Com:  0.347D-03-0.392D-03-0.287D-02-0.973D-02-0.254D-01-0.260D-01
 Coeff-Com: -0.535D-02 0.485D+00 0.585D+00
 Coeff:      0.347D-03-0.392D-03-0.287D-02-0.973D-02-0.254D-01-0.260D-01
 Coeff:     -0.535D-02 0.485D+00 0.585D+00
 Gap=     0.146 Goal=   None    Shift=    0.000
 Gap=     0.206 Goal=   None    Shift=    0.000
 RMSDP=3.29D-06 MaxDP=2.39D-04 DE=-1.44D-06 OVMax= 2.67D-04

 Cycle  10  Pass 1  IDiag  1:
 RMSU=  2.28D-06    CP:  9.85D-01  7.22D-01  6.57D-01  7.72D-01  7.06D-01
                    CP:  8.39D-01  8.78D-01  1.05D+00  8.60D-01
 E= -1467.54853343004     Delta-E=       -0.000000671925 Rises=F Damp=F
 DIIS: error= 9.25D-06 at cycle  10 NSaved=  10.
 NSaved=10 IEnMin=10 EnMin= -1467.54853343004     IErMin=10 ErrMin= 9.25D-06
 ErrMax= 9.25D-06  0.00D+00 EMaxC= 1.00D-01 BMatC= 5.47D-07 BMatP= 2.99D-06
 IDIUse=1 WtCom= 1.00D+00 WtEn= 0.00D+00
 Coeff-Com:  0.110D-03 0.717D-04-0.167D-03-0.171D-02-0.120D-01-0.315D-01
 Coeff-Com: -0.693D-01 0.109D+00 0.351D+00 0.655D+00
 Coeff:      0.110D-03 0.717D-04-0.167D-03-0.171D-02-0.120D-01-0.315D-01
 Coeff:     -0.693D-01 0.109D+00 0.351D+00 0.655D+00
 Gap=     0.146 Goal=   None    Shift=    0.000
 Gap=     0.206 Goal=   None    Shift=    0.000
 RMSDP=1.57D-06 MaxDP=1.29D-04 DE=-6.72D-07 OVMax= 2.73D-04

 Cycle  11  Pass 1  IDiag  1:
 RMSU=  9.38D-07    CP:  9.85D-01  7.22D-01  6.57D-01  7.72D-01  7.06D-01
                    CP:  8.46D-01  8.86D-01  1.13D+00  9.88D-01  8.60D-01
 E= -1467.54853358665     Delta-E=       -0.000000156616 Rises=F Damp=F
 DIIS: error= 5.50D-06 at cycle  11 NSaved=  11.
 NSaved=11 IEnMin=11 EnMin= -1467.54853358665     IErMin=11 ErrMin= 5.50D-06
 ErrMax= 5.50D-06  0.00D+00 EMaxC= 1.00D-01 BMatC= 1.04D-07 BMatP= 5.47D-07
 IDIUse=1 WtCom= 1.00D+00 WtEn= 0.00D+00
 Coeff-Com:  0.332D-05 0.810D-04 0.430D-03 0.830D-03-0.219D-02-0.106D-01
 Coeff-Com: -0.366D-01-0.206D-01 0.694D-01 0.358D+00 0.641D+00
 Coeff:      0.332D-05 0.810D-04 0.430D-03 0.830D-03-0.219D-02-0.106D-01
 Coeff:     -0.366D-01-0.206D-01 0.694D-01 0.358D+00 0.641D+00
 Gap=     0.146 Goal=   None    Shift=    0.000
 Gap=     0.206 Goal=   None    Shift=    0.000
 RMSDP=6.15D-07 MaxDP=5.88D-05 DE=-1.57D-07 OVMax= 1.19D-04

 Cycle  12  Pass 1  IDiag  1:
 RMSU=  4.30D-07    CP:  9.85D-01  7.22D-01  6.57D-01  7.72D-01  7.06D-01
                    CP:  8.47D-01  8.83D-01  1.14D+00  1.04D+00  9.77D-01
                    CP:  8.27D-01
 E= -1467.54853361249     Delta-E=       -0.000000025842 Rises=F Damp=F
 DIIS: error= 3.19D-06 at cycle  12 NSaved=  12.
 NSaved=12 IEnMin=12 EnMin= -1467.54853361249     IErMin=12 ErrMin= 3.19D-06
 ErrMax= 3.19D-06  0.00D+00 EMaxC= 1.00D-01 BMatC= 2.65D-08 BMatP= 1.04D-07
 IDIUse=1 WtCom= 1.00D+00 WtEn= 0.00D+00
 Coeff-Com: -0.133D-04 0.284D-04 0.298D-03 0.801D-03 0.587D-03-0.134D-02
 Coeff-Com: -0.123D-01-0.340D-01-0.269D-01 0.107D+00 0.399D+00 0.566D+00
 Coeff:     -0.133D-04 0.284D-04 0.298D-03 0.801D-03 0.587D-03-0.134D-02
 Coeff:     -0.123D-01-0.340D-01-0.269D-01 0.107D+00 0.399D+00 0.566D+00
 Gap=     0.146 Goal=   None    Shift=    0.000
 Gap=     0.206 Goal=   None    Shift=    0.000
 RMSDP=3.23D-07 MaxDP=2.23D-05 DE=-2.58D-08 OVMax= 2.78D-05

 Cycle  13  Pass 1  IDiag  1:
 RMSU=  2.04D-07    CP:  9.85D-01  7.22D-01  6.57D-01  7.72D-01  7.06D-01
                    CP:  8.48D-01  8.84D-01  1.15D+00  1.06D+00  1.04D+00
                    CP:  9.48D-01  8.37D-01
 E= -1467.54853361822     Delta-E=       -0.000000005724 Rises=F Damp=F
 DIIS: error= 1.03D-06 at cycle  13 NSaved=  13.
 NSaved=13 IEnMin=13 EnMin= -1467.54853361822     IErMin=13 ErrMin= 1.03D-06
 ErrMax= 1.03D-06  0.00D+00 EMaxC= 1.00D-01 BMatC= 4.03D-09 BMatP= 2.65D-08
 IDIUse=1 WtCom= 1.00D+00 WtEn= 0.00D+00
 Coeff-Com: -0.463D-05-0.808D-05 0.581D-04 0.210D-03 0.871D-03 0.266D-02
 Coeff-Com:  0.346D-02-0.964D-02-0.337D-01-0.322D-01 0.593D-01 0.311D+00
 Coeff-Com:  0.698D+00
 Coeff:     -0.463D-05-0.808D-05 0.581D-04 0.210D-03 0.871D-03 0.266D-02
 Coeff:      0.346D-02-0.964D-02-0.337D-01-0.322D-01 0.593D-01 0.311D+00
 Coeff:      0.698D+00
 Gap=     0.146 Goal=   None    Shift=    0.000
 Gap=     0.206 Goal=   None    Shift=    0.000
 RMSDP=1.26D-07 MaxDP=1.29D-05 DE=-5.72D-09 OVMax= 2.11D-05

 Cycle  14  Pass 1  IDiag  1:
 RMSU=  1.04D-07    CP:  9.85D-01  7.22D-01  6.57D-01  7.72D-01  7.06D-01
                    CP:  8.49D-01  8.84D-01  1.15D+00  1.06D+00  1.06D+00
                    CP:  9.79D-01  8.58D-01  8.23D-01
 E= -1467.54853361939     Delta-E=       -0.000000001168 Rises=F Damp=F
 DIIS: error= 5.58D-07 at cycle  14 NSaved=  14.
 NSaved=14 IEnMin=14 EnMin= -1467.54853361939     IErMin=14 ErrMin= 5.58D-07
 ErrMax= 5.58D-07  0.00D+00 EMaxC= 1.00D-01 BMatC= 8.62D-10 BMatP= 4.03D-09
 IDIUse=1 WtCom= 1.00D+00 WtEn= 0.00D+00
 Coeff-Com:  0.289D-06-0.113D-04-0.271D-04-0.432D-04 0.331D-03 0.162D-02
 Coeff-Com:  0.397D-02 0.170D-02-0.127D-01-0.386D-01-0.529D-01 0.254D-01
 Coeff-Com:  0.375D+00 0.696D+00
 Coeff:      0.289D-06-0.113D-04-0.271D-04-0.432D-04 0.331D-03 0.162D-02
 Coeff:      0.397D-02 0.170D-02-0.127D-01-0.386D-01-0.529D-01 0.254D-01
 Coeff:      0.375D+00 0.696D+00
 Gap=     0.146 Goal=   None    Shift=    0.000
 Gap=     0.206 Goal=   None    Shift=    0.000
 RMSDP=7.19D-08 MaxDP=4.74D-06 DE=-1.17D-09 OVMax= 5.92D-06

 Cycle  15  Pass 1  IDiag  1:
 RMSU=  3.43D-08    CP:  9.85D-01  7.22D-01  6.57D-01  7.72D-01  7.06D-01
                    CP:  8.49D-01  8.83D-01  1.15D+00  1.06D+00  1.07D+00
                    CP:  1.00D+00  9.47D-01  9.45D-01  8.12D-01
 E= -1467.54853361959     Delta-E=       -0.000000000207 Rises=F Damp=F
 DIIS: error= 1.34D-07 at cycle  15 NSaved=  15.
 NSaved=15 IEnMin=15 EnMin= -1467.54853361959     IErMin=15 ErrMin= 1.34D-07
 ErrMax= 1.34D-07  0.00D+00 EMaxC= 1.00D-01 BMatC= 5.83D-11 BMatP= 8.62D-10
 IDIUse=1 WtCom= 1.00D+00 WtEn= 0.00D+00
 Coeff-Com:  0.781D-06-0.229D-05-0.196D-04-0.484D-04-0.114D-04 0.212D-03
 Coeff-Com:  0.868D-03 0.216D-02 0.330D-03-0.817D-02-0.266D-01-0.402D-01
 Coeff-Com:  0.414D-01 0.223D+00 0.807D+00
 Coeff:      0.781D-06-0.229D-05-0.196D-04-0.484D-04-0.114D-04 0.212D-03
 Coeff:      0.868D-03 0.216D-02 0.330D-03-0.817D-02-0.266D-01-0.402D-01
 Coeff:      0.414D-01 0.223D+00 0.807D+00
 Gap=     0.146 Goal=   None    Shift=    0.000
 Gap=     0.206 Goal=   None    Shift=    0.000
 RMSDP=2.05D-08 MaxDP=1.22D-06 DE=-2.07D-10 OVMax= 2.17D-06

 Cycle  16  Pass 1  IDiag  1:
 RMSU=  1.42D-08    CP:  9.85D-01  7.22D-01  6.57D-01  7.72D-01  7.06D-01
                    CP:  8.49D-01  8.83D-01  1.15D+00  1.07D+00  1.07D+00
                    CP:  1.00D+00  9.49D-01  9.93D-01  8.92D-01  9.40D-01
 E= -1467.54853361959     Delta-E=       -0.000000000001 Rises=F Damp=F
 DIIS: error= 4.81D-08 at cycle  16 NSaved=  16.
 NSaved=16 IEnMin=16 EnMin= -1467.54853361959     IErMin=16 ErrMin= 4.81D-08
 ErrMax= 4.81D-08  0.00D+00 EMaxC= 1.00D-01 BMatC= 1.16D-11 BMatP= 5.83D-11
 IDIUse=1 WtCom= 1.00D+00 WtEn= 0.00D+00
 Coeff-Com:  0.128D-06 0.102D-05-0.368D-05-0.111D-04-0.544D-04-0.156D-03
 Coeff-Com: -0.265D-03 0.601D-03 0.193D-02 0.288D-02-0.252D-02-0.200D-01
 Coeff-Com: -0.375D-01-0.235D-01 0.318D+00 0.761D+00
 Coeff:      0.128D-06 0.102D-05-0.368D-05-0.111D-04-0.544D-04-0.156D-03
 Coeff:     -0.265D-03 0.601D-03 0.193D-02 0.288D-02-0.252D-02-0.200D-01
 Coeff:     -0.375D-01-0.235D-01 0.318D+00 0.761D+00
 Gap=     0.146 Goal=   None    Shift=    0.000
 Gap=     0.206 Goal=   None    Shift=    0.000
 RMSDP=8.83D-09 MaxDP=4.98D-07 DE=-1.36D-12 OVMax= 1.32D-06

 SCF Done:  E(UPBE1PBE) =  -1467.54853362     A.U. after   16 cycles
            NFock= 16  Conv=0.88D-08     -V/T= 2.0052
 <Sx>= 0.0000 <Sy>= 0.0000 <Sz>= 0.5000 <S**2>= 0.7550 S= 0.5025
 <L.S>=  0.00000000000    
 KE= 1.459885431510D+03 PE=-6.497101648168D+03 EE= 2.048811935064D+03
 Annihilation of the first spin contaminant:
 S**2 before annihilation     0.7550,   after     0.7500
 Leave Link  502 at Mon Jun 17 21:22:39 2019, MaxMem=  8053063680 cpu:               0.0 elap:             160.3
 (Enter /data2/g16/g16/l601.exe)
 Copying SCF densities to generalized density rwf, IOpCl= 1 IROHF=0.

 **********************************************************************

            Population analysis using the SCF Density.

 **********************************************************************

 Orbital symmetries:
 Alpha Orbitals:
       Occupied  (A) (A) (A) (A) (A) (A) (A) (A) (A) (A) (A) (A)
                 (A) (A) (A) (A) (A) (A) (A) (A) (A) (A) (A) (A)
                 (A) (A) (A) (A) (A) (A) (A) (A) (A) (A) (A) (A)
                 (A) (A) (A) (A) (A) (A) (A) (A) (A) (A) (A) (A)
                 (A) (A) (A) (A) (A) (A) (A) (A) (A) (A) (A) (A)
                 (A) (A) (A) (A) (A) (A) (A) (A) (A) (A) (A)
       Virtual   (A) (A) (A) (A) (A) (A) (A) (A) (A) (A) (A) (A)
                 (A) (A) (A) (A) (A) (A) (A) (A) (A) (A) (A) (A)
                 (A) (A) (A) (A) (A) (A) (A) (A) (A) (A) (A) (A)
                 (A) (A) (A) (A) (A) (A) (A) (A) (A) (A) (A) (A)
                 (A) (A) (A) (A) (A) (A) (A) (A) (A) (A) (A) (A)
                 (A) (A) (A) (A) (A) (A) (A) (A) (A) (A) (A) (A)
                 (A) (A) (A) (A) (A) (A) (A) (A) (A) (A) (A) (A)
                 (A) (A) (A) (A) (A) (A) (A) (A) (A) (A) (A) (A)
                 (A) (A) (A) (A) (A) (A) (A) (A) (A) (A) (A) (A)
                 (A) (A) (A) (A) (A) (A) (A) (A) (A) (A) (A) (A)
                 (A) (A) (A) (A) (A) (A) (A) (A) (A) (A) (A) (A)
                 (A) (A) (A) (A) (A) (A) (A) (A) (A) (A) (A) (A)
                 (A) (A) (A) (A) (A) (A) (A) (A) (A) (A) (A) (A)
                 (A) (A) (A) (A) (A) (A) (A) (A) (A) (A) (A) (A)
                 (A) (A) (A) (A) (A) (A) (A) (A) (A) (A) (A) (A)
                 (A) (A) (A) (A) (A) (A) (A) (A) (A) (A) (A) (A)
                 (A) (A) (A) (A) (A) (A) (A) (A) (A) (A) (A) (A)
                 (A) (A) (A) (A) (A) (A) (A) (A) (A) (A) (A) (A)
                 (A) (A) (A) (A) (A) (A) (A) (A) (A) (A) (A) (A)
                 (A) (A) (A) (A) (A) (A) (A) (A) (A) (A) (A) (A)
                 (A) (A) (A) (A) (A) (A) (A) (A) (A) (A) (A) (A)
                 (A) (A) (A) (A) (A) (A) (A) (A) (A) (A) (A) (A)
                 (A) (A) (A) (A) (A) (A) (A) (A) (A) (A) (A) (A)
                 (A) (A) (A) (A) (A) (A) (A) (A) (A) (A) (A) (A)
                 (A) (A) (A) (A) (A) (A) (A) (A) (A) (A) (A) (A)
                 (A) (A) (A) (A) (A) (A) (A) (A) (A) (A) (A) (A)
                 (A) (A) (A) (A) (A) (A) (A) (A) (A) (A) (A) (A)
                 (A) (A) (A) (A) (A) (A) (A) (A) (A) (A) (A) (A)
                 (A) (A) (A) (A) (A) (A) (A) (A) (A) (A) (A) (A)
                 (A) (A) (A) (A) (A) (A) (A) (A) (A) (A) (A) (A)
                 (A) (A) (A) (A) (A) (A) (A)
 Beta  Orbitals:
       Occupied  (A) (A) (A) (A) (A) (A) (A) (A) (A) (A) (A) (A)
                 (A) (A) (A) (A) (A) (A) (A) (A) (A) (A) (A) (A)
                 (A) (A) (A) (A) (A) (A) (A) (A) (A) (A) (A) (A)
                 (A) (A) (A) (A) (A) (A) (A) (A) (A) (A) (A) (A)
                 (A) (A) (A) (A) (A) (A) (A) (A) (A) (A) (A) (A)
                 (A) (A) (A) (A) (A) (A) (A) (A) (A) (A)
       Virtual   (A) (A) (A) (A) (A) (A) (A) (A) (A) (A) (A) (A)
                 (A) (A) (A) (A) (A) (A) (A) (A) (A) (A) (A) (A)
                 (A) (A) (A) (A) (A) (A) (A) (A) (A) (A) (A) (A)
                 (A) (A) (A) (A) (A) (A) (A) (A) (A) (A) (A) (A)
                 (A) (A) (A) (A) (A) (A) (A) (A) (A) (A) (A) (A)
                 (A) (A) (A) (A) (A) (A) (A) (A) (A) (A) (A) (A)
                 (A) (A) (A) (A) (A) (A) (A) (A) (A) (A) (A) (A)
                 (A) (A) (A) (A) (A) (A) (A) (A) (A) (A) (A) (A)
                 (A) (A) (A) (A) (A) (A) (A) (A) (A) (A) (A) (A)
                 (A) (A) (A) (A) (A) (A) (A) (A) (A) (A) (A) (A)
                 (A) (A) (A) (A) (A) (A) (A) (A) (A) (A) (A) (A)
                 (A) (A) (A) (A) (A) (A) (A) (A) (A) (A) (A) (A)
                 (A) (A) (A) (A) (A) (A) (A) (A) (A) (A) (A) (A)
                 (A) (A) (A) (A) (A) (A) (A) (A) (A) (A) (A) (A)
                 (A) (A) (A) (A) (A) (A) (A) (A) (A) (A) (A) (A)
                 (A) (A) (A) (A) (A) (A) (A) (A) (A) (A) (A) (A)
                 (A) (A) (A) (A) (A) (A) (A) (A) (A) (A) (A) (A)
                 (A) (A) (A) (A) (A) (A) (A) (A) (A) (A) (A) (A)
                 (A) (A) (A) (A) (A) (A) (A) (A) (A) (A) (A) (A)
                 (A) (A) (A) (A) (A) (A) (A) (A) (A) (A) (A) (A)
                 (A) (A) (A) (A) (A) (A) (A) (A) (A) (A) (A) (A)
                 (A) (A) (A) (A) (A) (A) (A) (A) (A) (A) (A) (A)
                 (A) (A) (A) (A) (A) (A) (A) (A) (A) (A) (A) (A)
                 (A) (A) (A) (A) (A) (A) (A) (A) (A) (A) (A) (A)
                 (A) (A) (A) (A) (A) (A) (A) (A) (A) (A) (A) (A)
                 (A) (A) (A) (A) (A) (A) (A) (A) (A) (A) (A) (A)
                 (A) (A) (A) (A) (A) (A) (A) (A) (A) (A) (A) (A)
                 (A) (A) (A) (A) (A) (A) (A) (A) (A) (A) (A) (A)
                 (A) (A) (A) (A) (A) (A) (A) (A) (A) (A) (A) (A)
                 (A) (A) (A) (A) (A) (A) (A) (A) (A) (A) (A) (A)
                 (A) (A) (A) (A) (A) (A) (A) (A)
 The electronic state is 2-A.
 Alpha  occ. eigenvalues --  -89.28821 -89.08211 -19.24730 -19.24257 -19.22607
 Alpha  occ. eigenvalues --  -14.48507 -10.29827 -10.29715 -10.29139 -10.28729
 Alpha  occ. eigenvalues --  -10.26169 -10.24903 -10.23185 -10.22729 -10.22658
 Alpha  occ. eigenvalues --  -10.22448  -8.22136  -8.04454  -6.15857  -6.15816
 Alpha  occ. eigenvalues --   -6.15701  -5.98297  -5.97916  -5.97196  -1.14669
 Alpha  occ. eigenvalues --   -1.13622  -1.04434  -0.93306  -0.85922  -0.84049
 Alpha  occ. eigenvalues --   -0.82277  -0.77266  -0.74913  -0.72054  -0.71219
 Alpha  occ. eigenvalues --   -0.70618  -0.64493  -0.62472  -0.59028  -0.56410
 Alpha  occ. eigenvalues --   -0.53123  -0.51822  -0.51302  -0.50768  -0.50239
 Alpha  occ. eigenvalues --   -0.48490  -0.47422  -0.46377  -0.46169  -0.45205
 Alpha  occ. eigenvalues --   -0.44658  -0.44021  -0.42723  -0.42403  -0.41635
 Alpha  occ. eigenvalues --   -0.40526  -0.40046  -0.39165  -0.38909  -0.36484
 Alpha  occ. eigenvalues --   -0.36398  -0.36132  -0.35736  -0.35647  -0.34597
 Alpha  occ. eigenvalues --   -0.33581  -0.31772  -0.28358  -0.27191  -0.26924
 Alpha  occ. eigenvalues --   -0.20051
 Alpha virt. eigenvalues --   -0.05431  -0.02498   0.00436   0.01050   0.02616
 Alpha virt. eigenvalues --    0.03427   0.03742   0.04540   0.04783   0.05003
 Alpha virt. eigenvalues --    0.05452   0.05830   0.06167   0.06281   0.06849
 Alpha virt. eigenvalues --    0.07844   0.08236   0.08327   0.09011   0.09246
 Alpha virt. eigenvalues --    0.09396   0.09734   0.10279   0.10836   0.10965
 Alpha virt. eigenvalues --    0.11367   0.11877   0.12578   0.13006   0.13686
 Alpha virt. eigenvalues --    0.14032   0.14331   0.14803   0.15130   0.15459
 Alpha virt. eigenvalues --    0.16010   0.16533   0.16592   0.17105   0.17649
 Alpha virt. eigenvalues --    0.18509   0.18750   0.19260   0.19491   0.19681
 Alpha virt. eigenvalues --    0.20033   0.20920   0.21323   0.21868   0.22436
 Alpha virt. eigenvalues --    0.23154   0.23476   0.24198   0.24351   0.25219
 Alpha virt. eigenvalues --    0.25951   0.26300   0.26594   0.27155   0.27636
 Alpha virt. eigenvalues --    0.28041   0.28578   0.28893   0.29346   0.29685
 Alpha virt. eigenvalues --    0.30285   0.30614   0.31413   0.31507   0.32008
 Alpha virt. eigenvalues --    0.32647   0.32939   0.33720   0.34302   0.34985
 Alpha virt. eigenvalues --    0.35618   0.36795   0.37800   0.37914   0.40590
 Alpha virt. eigenvalues --    0.41600   0.42131   0.42267   0.42990   0.44510
 Alpha virt. eigenvalues --    0.46196   0.47290   0.47573   0.48109   0.49971
 Alpha virt. eigenvalues --    0.50606   0.51186   0.51834   0.52099   0.52300
 Alpha virt. eigenvalues --    0.52964   0.53739   0.54366   0.55455   0.56172
 Alpha virt. eigenvalues --    0.56907   0.57474   0.58328   0.59834   0.60295
 Alpha virt. eigenvalues --    0.60583   0.61791   0.62542   0.63267   0.63954
 Alpha virt. eigenvalues --    0.64489   0.65010   0.65512   0.65681   0.66737
 Alpha virt. eigenvalues --    0.68106   0.68346   0.68573   0.70070   0.70998
 Alpha virt. eigenvalues --    0.72105   0.72656   0.72989   0.73346   0.74185
 Alpha virt. eigenvalues --    0.74905   0.75750   0.76470   0.77482   0.78542
 Alpha virt. eigenvalues --    0.78984   0.79665   0.80655   0.81822   0.82316
 Alpha virt. eigenvalues --    0.82821   0.83279   0.83898   0.84752   0.85517
 Alpha virt. eigenvalues --    0.86003   0.86981   0.88043   0.88664   0.88765
 Alpha virt. eigenvalues --    0.89071   0.89725   0.90350   0.91088   0.91786
 Alpha virt. eigenvalues --    0.92072   0.92878   0.94364   0.95031   0.95161
 Alpha virt. eigenvalues --    0.95911   0.97723   0.97797   0.98259   0.99144
 Alpha virt. eigenvalues --    1.00096   1.01560   1.02168   1.03374   1.04144
 Alpha virt. eigenvalues --    1.04857   1.07458   1.08598   1.09083   1.11395
 Alpha virt. eigenvalues --    1.12525   1.14345   1.15006   1.15844   1.17181
 Alpha virt. eigenvalues --    1.18590   1.20251   1.22197   1.22405   1.23616
 Alpha virt. eigenvalues --    1.25671   1.28709   1.30099   1.30686   1.32150
 Alpha virt. eigenvalues --    1.36120   1.37931   1.39544   1.40115   1.41372
 Alpha virt. eigenvalues --    1.44308   1.45208   1.45842   1.48006   1.48897
 Alpha virt. eigenvalues --    1.49909   1.50132   1.50757   1.52877   1.56009
 Alpha virt. eigenvalues --    1.57277   1.59363   1.62689   1.63085   1.63389
 Alpha virt. eigenvalues --    1.65492   1.65764   1.66659   1.68113   1.68525
 Alpha virt. eigenvalues --    1.69091   1.71469   1.72245   1.73126   1.74544
 Alpha virt. eigenvalues --    1.75276   1.76481   1.77881   1.78914   1.79410
 Alpha virt. eigenvalues --    1.79665   1.80131   1.80762   1.82124   1.82573
 Alpha virt. eigenvalues --    1.84018   1.85049   1.85352   1.86280   1.86429
 Alpha virt. eigenvalues --    1.87747   1.89451   1.92061   1.92381   1.93871
 Alpha virt. eigenvalues --    1.95155   1.95926   1.97934   1.98293   1.99356
 Alpha virt. eigenvalues --    1.99812   2.01658   2.03197   2.03952   2.05577
 Alpha virt. eigenvalues --    2.06594   2.07339   2.10195   2.11783   2.13540
 Alpha virt. eigenvalues --    2.14694   2.16171   2.16979   2.24907   2.25628
 Alpha virt. eigenvalues --    2.27986   2.28225   2.30917   2.33146   2.34450
 Alpha virt. eigenvalues --    2.36438   2.38737   2.39427   2.40253   2.40993
 Alpha virt. eigenvalues --    2.43095   2.44731   2.47216   2.48731   2.49620
 Alpha virt. eigenvalues --    2.53808   2.54399   2.55029   2.58031   2.58617
 Alpha virt. eigenvalues --    2.60657   2.63720   2.65231   2.66117   2.67553
 Alpha virt. eigenvalues --    2.70651   2.75602   2.75850   2.76913   2.80379
 Alpha virt. eigenvalues --    2.82528   2.82683   2.83145   2.83189   2.84137
 Alpha virt. eigenvalues --    2.84242   2.85301   2.86340   2.87011   2.87734
 Alpha virt. eigenvalues --    2.88255   2.89657   2.91225   2.93017   2.93608
 Alpha virt. eigenvalues --    2.94405   2.95669   2.96787   2.98006   2.98439
 Alpha virt. eigenvalues --    2.99276   3.02954   3.03672   3.03975   3.06521
 Alpha virt. eigenvalues --    3.08168   3.15641   3.18199   3.19445   3.20562
 Alpha virt. eigenvalues --    3.26185   3.28181   3.29524   3.31132   3.31794
 Alpha virt. eigenvalues --    3.34587   3.35612   3.37175   3.38443   3.40978
 Alpha virt. eigenvalues --    3.42190   3.43578   3.44893   3.47836   3.50165
 Alpha virt. eigenvalues --    3.53530   3.56955   3.60083   3.63536   3.64843
 Alpha virt. eigenvalues --    3.76763   3.94556   4.47095   4.57053   4.62138
 Alpha virt. eigenvalues --    4.64155   4.72299   4.73852   4.74611   4.86618
 Alpha virt. eigenvalues --    4.91311   5.03115   5.44644   5.81692   5.84372
 Alpha virt. eigenvalues --    6.08194  22.21318  22.63235  58.49134  58.49227
 Alpha virt. eigenvalues --   58.50361  58.50625  58.50863  58.55724  58.56183
 Alpha virt. eigenvalues --   58.56239  58.56506  58.56773  95.61943 106.32205
 Alpha virt. eigenvalues --  106.33233 106.39177
  Beta  occ. eigenvalues --  -89.28821 -89.08211 -19.24730 -19.24257 -19.21180
  Beta  occ. eigenvalues --  -14.47311 -10.29829 -10.29715 -10.29206 -10.28796
  Beta  occ. eigenvalues --  -10.26168 -10.24900 -10.23136 -10.22677 -10.22612
  Beta  occ. eigenvalues --  -10.22393  -8.22136  -8.04454  -6.15857  -6.15816
  Beta  occ. eigenvalues --   -6.15701  -5.98296  -5.97916  -5.97196  -1.14669
  Beta  occ. eigenvalues --   -1.10988  -1.04434  -0.92362  -0.85732  -0.83947
  Beta  occ. eigenvalues --   -0.82141  -0.77070  -0.73846  -0.71812  -0.71092
  Beta  occ. eigenvalues --   -0.70148  -0.64440  -0.62342  -0.58650  -0.55897
  Beta  occ. eigenvalues --   -0.53037  -0.51814  -0.51023  -0.50419  -0.48389
  Beta  occ. eigenvalues --   -0.47510  -0.47169  -0.46367  -0.46102  -0.44959
  Beta  occ. eigenvalues --   -0.44309  -0.43887  -0.42504  -0.41599  -0.41141
  Beta  occ. eigenvalues --   -0.40216  -0.40012  -0.38815  -0.37660  -0.36345
  Beta  occ. eigenvalues --   -0.36093  -0.35703  -0.35655  -0.34569  -0.33580
  Beta  occ. eigenvalues --   -0.32777  -0.31769  -0.28267  -0.26743  -0.25998
  Beta virt. eigenvalues --   -0.05433  -0.03706  -0.02451   0.00446   0.01056
  Beta virt. eigenvalues --    0.02637   0.03449   0.03782   0.04575   0.04873
  Beta virt. eigenvalues --    0.05038   0.05479   0.05876   0.06196   0.06311
  Beta virt. eigenvalues --    0.06922   0.07863   0.08277   0.08437   0.09041
  Beta virt. eigenvalues --    0.09340   0.09433   0.09809   0.10328   0.10897
  Beta virt. eigenvalues --    0.10979   0.11407   0.11970   0.12685   0.13098
  Beta virt. eigenvalues --    0.13743   0.14082   0.14382   0.14925   0.15226
  Beta virt. eigenvalues --    0.15703   0.16096   0.16595   0.16915   0.17281
  Beta virt. eigenvalues --    0.17759   0.18550   0.18896   0.19335   0.19769
  Beta virt. eigenvalues --    0.19804   0.20210   0.21018   0.21452   0.21961
  Beta virt. eigenvalues --    0.22536   0.23325   0.23523   0.24329   0.24725
  Beta virt. eigenvalues --    0.25401   0.26109   0.26378   0.26676   0.27201
  Beta virt. eigenvalues --    0.27699   0.28118   0.28736   0.29078   0.29419
  Beta virt. eigenvalues --    0.30068   0.30570   0.30738   0.31541   0.31861
  Beta virt. eigenvalues --    0.32087   0.32796   0.33174   0.33927   0.34364
  Beta virt. eigenvalues --    0.35074   0.35811   0.36825   0.37880   0.37996
  Beta virt. eigenvalues --    0.40618   0.41642   0.42205   0.42682   0.43109
  Beta virt. eigenvalues --    0.44682   0.46252   0.47378   0.47609   0.48166
  Beta virt. eigenvalues --    0.50146   0.50660   0.51398   0.51925   0.52238
  Beta virt. eigenvalues --    0.52361   0.53005   0.53959   0.54398   0.55512
  Beta virt. eigenvalues --    0.56258   0.56971   0.57548   0.58459   0.59993
  Beta virt. eigenvalues --    0.60411   0.60720   0.61841   0.62584   0.63444
  Beta virt. eigenvalues --    0.64025   0.64563   0.65090   0.65634   0.65958
  Beta virt. eigenvalues --    0.66813   0.68179   0.68543   0.68742   0.70273
  Beta virt. eigenvalues --    0.71265   0.72219   0.72761   0.73048   0.73427
  Beta virt. eigenvalues --    0.74387   0.74934   0.75878   0.76539   0.77525
  Beta virt. eigenvalues --    0.78767   0.79025   0.79888   0.80755   0.82023
  Beta virt. eigenvalues --    0.82441   0.82865   0.83343   0.84007   0.84834
  Beta virt. eigenvalues --    0.85563   0.86122   0.87085   0.88067   0.88734
  Beta virt. eigenvalues --    0.88805   0.89111   0.89777   0.90418   0.91153
  Beta virt. eigenvalues --    0.91860   0.92195   0.93154   0.94495   0.95120
  Beta virt. eigenvalues --    0.95242   0.96105   0.97778   0.98120   0.98969
  Beta virt. eigenvalues --    0.99561   1.00387   1.01858   1.02202   1.03474
  Beta virt. eigenvalues --    1.04250   1.04981   1.07516   1.08658   1.09423
  Beta virt. eigenvalues --    1.11726   1.12552   1.14409   1.15078   1.15957
  Beta virt. eigenvalues --    1.17426   1.18839   1.20703   1.22571   1.23090
  Beta virt. eigenvalues --    1.24361   1.26128   1.29107   1.30431   1.31663
  Beta virt. eigenvalues --    1.32397   1.36531   1.38220   1.39591   1.40177
  Beta virt. eigenvalues --    1.41457   1.44334   1.45407   1.46131   1.48318
  Beta virt. eigenvalues --    1.48948   1.49987   1.50177   1.50819   1.52916
  Beta virt. eigenvalues --    1.56192   1.57348   1.59488   1.62704   1.63104
  Beta virt. eigenvalues --    1.63403   1.65868   1.65975   1.67138   1.68227
  Beta virt. eigenvalues --    1.68549   1.69443   1.71578   1.72328   1.73229
  Beta virt. eigenvalues --    1.74618   1.75340   1.76561   1.77966   1.78968
  Beta virt. eigenvalues --    1.79458   1.79743   1.80217   1.80786   1.82196
  Beta virt. eigenvalues --    1.82698   1.84132   1.85091   1.85463   1.86442
  Beta virt. eigenvalues --    1.86536   1.87908   1.89553   1.92399   1.92563
  Beta virt. eigenvalues --    1.93920   1.95164   1.95944   1.98043   1.98468
  Beta virt. eigenvalues --    1.99686   2.00041   2.02033   2.03504   2.04123
  Beta virt. eigenvalues --    2.06165   2.06920   2.07546   2.10486   2.12435
  Beta virt. eigenvalues --    2.13641   2.14935   2.16220   2.17406   2.25575
  Beta virt. eigenvalues --    2.25956   2.28155   2.29325   2.30991   2.33217
  Beta virt. eigenvalues --    2.34607   2.36533   2.38740   2.39429   2.40375
  Beta virt. eigenvalues --    2.41375   2.43357   2.44827   2.47377   2.49260
  Beta virt. eigenvalues --    2.49747   2.53904   2.55208   2.55712   2.58466
  Beta virt. eigenvalues --    2.58738   2.60702   2.63772   2.65358   2.66168
  Beta virt. eigenvalues --    2.68485   2.70840   2.75709   2.76124   2.77217
  Beta virt. eigenvalues --    2.80578   2.82544   2.82730   2.83196   2.84023
  Beta virt. eigenvalues --    2.84192   2.85320   2.85965   2.86929   2.87041
  Beta virt. eigenvalues --    2.87937   2.89450   2.89872   2.91499   2.93072
  Beta virt. eigenvalues --    2.94533   2.95006   2.96260   2.96957   2.98161
  Beta virt. eigenvalues --    2.98504   2.99774   3.03142   3.04144   3.04506
  Beta virt. eigenvalues --    3.06616   3.08278   3.15969   3.19130   3.19612
  Beta virt. eigenvalues --    3.24192   3.26194   3.28184   3.29843   3.31170
  Beta virt. eigenvalues --    3.31904   3.34629   3.35622   3.37223   3.38467
  Beta virt. eigenvalues --    3.41050   3.42248   3.43731   3.44942   3.47936
  Beta virt. eigenvalues --    3.50309   3.53708   3.56981   3.60130   3.63643
  Beta virt. eigenvalues --    3.64869   3.76784   3.96257   4.47166   4.57113
  Beta virt. eigenvalues --    4.62139   4.64273   4.72376   4.73955   4.74715
  Beta virt. eigenvalues --    4.86745   4.91349   5.03117   5.46539   5.81704
  Beta virt. eigenvalues --    5.84374   6.10692  22.21318  22.63235  58.49132
  Beta virt. eigenvalues --   58.49227  58.50345  58.50585  58.50807  58.55767
  Beta virt. eigenvalues --   58.56229  58.56281  58.56554  58.56775  95.62876
  Beta virt. eigenvalues --  106.32208 106.33233 106.40314
          Condensed to atoms (all electrons):
               1          2          3          4          5          6
     1  O    8.671994  -0.020204  -0.088945  -0.001874   0.038414  -0.003632
     2  N   -0.020204   7.376805   0.082174  -0.058499  -0.022182   0.016314
     3  C   -0.088945   0.082174   5.447824   0.244690  -0.110775   0.018478
     4  C   -0.001874  -0.058499   0.244690   5.177241   0.614449  -0.031674
     5  C    0.038414  -0.022182  -0.110775   0.614449   5.421309   0.192396
     6  C   -0.003632   0.016314   0.018478  -0.031674   0.192396   5.225339
     7  S   -0.000783   0.005314   0.000047  -0.002820  -0.132579   0.258942
     8  C   -0.071924   0.054201  -0.137892  -0.065300   0.204548  -0.076654
     9  C   -0.010742  -0.090248   0.006799  -0.002345  -0.069801   0.010003
    10  C   -0.010513  -0.086720   0.018022  -0.011045  -0.073839   0.004378
    11  C   -0.006951  -0.106444   0.306978  -0.042898  -0.005620  -0.002623
    12  C   -0.001529  -0.090831   0.312383  -0.075539  -0.007401  -0.001465
    13  H   -0.000591   0.002752  -0.035256   0.405623  -0.049177  -0.001740
    14  H    0.000068  -0.002484   0.003557   0.024057  -0.084004   0.420364
    15  H    0.000110  -0.002611  -0.000319   0.004882  -0.063143   0.407648
    16  H   -0.001125   0.017780  -0.003064   0.003168  -0.001154  -0.000489
    17  H   -0.000678   0.005581  -0.000402   0.001150  -0.005619   0.002286
    18  H    0.007545  -0.022357   0.001259  -0.000915   0.008350  -0.001027
    19  H    0.008227  -0.027508  -0.001359  -0.001517   0.020426  -0.001450
    20  H   -0.000441   0.005465  -0.000720   0.001411  -0.004024   0.002584
    21  H   -0.000637   0.004178   0.000802   0.001055   0.000025   0.003029
    22  H   -0.000404   0.001928  -0.057369  -0.000504   0.008566  -0.000731
    23  H   -0.000414   0.005872  -0.047528   0.002698   0.001165  -0.000044
    24  H    0.006601  -0.024664  -0.032325   0.014962  -0.002584   0.000091
    25  H    0.008070  -0.029325  -0.027618   0.016090  -0.001026   0.000024
    26  H   -0.000891   0.010728  -0.048481  -0.001706  -0.000177  -0.000020
    27  H   -0.000552   0.013910  -0.061858  -0.005181   0.004373  -0.000603
    28  S   -0.000013  -0.002235   0.000689  -0.030553  -0.008142  -0.004012
    29  O    0.000032   0.006323  -0.005257   0.028591   0.012841   0.005083
    30  O    0.000104  -0.000170  -0.007362   0.025268   0.021899  -0.023991
    31  C    0.000003   0.000218  -0.000740   0.002808   0.004861  -0.000416
    32  H    0.000000  -0.000010   0.000031  -0.000097  -0.000501   0.000211
    33  H   -0.000000   0.000006   0.000014  -0.000025   0.000135   0.000182
    34  H    0.000000  -0.000003  -0.000020  -0.000443  -0.000019  -0.000402
               7          8          9         10         11         12
     1  O   -0.000783  -0.071924  -0.010742  -0.010513  -0.006951  -0.001529
     2  N    0.005314   0.054201  -0.090248  -0.086720  -0.106444  -0.090831
     3  C    0.000047  -0.137892   0.006799   0.018022   0.306978   0.312383
     4  C   -0.002820  -0.065300  -0.002345  -0.011045  -0.042898  -0.075539
     5  C   -0.132579   0.204548  -0.069801  -0.073839  -0.005620  -0.007401
     6  C    0.258942  -0.076654   0.010003   0.004378  -0.002623  -0.001465
     7  S   15.873240  -0.002182   0.002658  -0.000662  -0.000216   0.000951
     8  C   -0.002182   5.446753   0.326526   0.322204   0.014937   0.021809
     9  C    0.002658   0.326526   5.012268  -0.085192  -0.005278   0.004938
    10  C   -0.000662   0.322204  -0.085192   5.032833   0.005237  -0.006264
    11  C   -0.000216   0.014937  -0.005278   0.005237   5.030653  -0.080996
    12  C    0.000951   0.021809   0.004938  -0.006264  -0.080996   5.024164
    13  H    0.000009   0.012760  -0.000907  -0.001554  -0.001003   0.003134
    14  H   -0.041796   0.003029  -0.000009  -0.001844  -0.000192  -0.000046
    15  H   -0.042151   0.007968  -0.001061   0.005860   0.000304  -0.000060
    16  H    0.000595  -0.065374   0.412749   0.009207   0.000145  -0.001308
    17  H    0.000933  -0.033638   0.398942  -0.004219   0.000163  -0.000168
    18  H    0.000218  -0.035147   0.411577  -0.004180   0.000011  -0.000251
    19  H    0.000093  -0.040651  -0.002421   0.416554  -0.000129   0.000038
    20  H   -0.000390  -0.038611  -0.003764   0.401864  -0.000064   0.000137
    21  H   -0.000957  -0.056535   0.008444   0.409599  -0.001057  -0.000044
    22  H    0.000001  -0.002416   0.000095  -0.001282   0.411978   0.008594
    23  H    0.000004  -0.001034   0.000129  -0.000062   0.406552  -0.002496
    24  H   -0.000014   0.000937  -0.000107  -0.000110   0.412225  -0.003854
    25  H   -0.000047  -0.002855  -0.000148   0.000070  -0.004272   0.409214
    26  H   -0.000004  -0.001030  -0.000149   0.000204  -0.002491   0.406120
    27  H   -0.000012   0.000097  -0.001314   0.000073   0.009065   0.412080
    28  S    0.310499   0.004407  -0.003757  -0.000180  -0.000722   0.002315
    29  O   -0.074637  -0.009382  -0.000608   0.000146   0.000255  -0.007037
    30  O   -0.082575  -0.004410   0.000747   0.000022   0.001019   0.000661
    31  C   -0.052711  -0.001271   0.000260   0.000051   0.000051  -0.000215
    32  H   -0.000801   0.000151  -0.000074  -0.000002  -0.000000  -0.000008
    33  H    0.001558  -0.000040  -0.000001   0.000001  -0.000000  -0.000006
    34  H    0.002432   0.000122   0.000002  -0.000001  -0.000000   0.000010
              13         14         15         16         17         18
     1  O   -0.000591   0.000068   0.000110  -0.001125  -0.000678   0.007545
     2  N    0.002752  -0.002484  -0.002611   0.017780   0.005581  -0.022357
     3  C   -0.035256   0.003557  -0.000319  -0.003064  -0.000402   0.001259
     4  C    0.405623   0.024057   0.004882   0.003168   0.001150  -0.000915
     5  C   -0.049177  -0.084004  -0.063143  -0.001154  -0.005619   0.008350
     6  C   -0.001740   0.420364   0.407648  -0.000489   0.002286  -0.001027
     7  S    0.000009  -0.041796  -0.042151   0.000595   0.000933   0.000218
     8  C    0.012760   0.003029   0.007968  -0.065374  -0.033638  -0.035147
     9  C   -0.000907  -0.000009  -0.001061   0.412749   0.398942   0.411577
    10  C   -0.001554  -0.001844   0.005860   0.009207  -0.004219  -0.004180
    11  C   -0.001003  -0.000192   0.000304   0.000145   0.000163   0.000011
    12  C    0.003134  -0.000046  -0.000060  -0.001308  -0.000168  -0.000251
    13  H    0.508797   0.002247  -0.000016  -0.000031  -0.000001   0.000004
    14  H    0.002247   0.490366  -0.014270  -0.000039  -0.000016   0.000001
    15  H   -0.000016  -0.014270   0.530566   0.000092  -0.000051   0.000013
    16  H   -0.000031  -0.000039   0.000092   0.537159  -0.019813  -0.015377
    17  H   -0.000001  -0.000016  -0.000051  -0.019813   0.566167  -0.020835
    18  H    0.000004   0.000001   0.000013  -0.015377  -0.020835   0.528062
    19  H    0.000005   0.000004  -0.000034  -0.000013  -0.000259   0.001898
    20  H    0.000002   0.000014  -0.000131   0.000083   0.001222  -0.000160
    21  H   -0.000019   0.000001  -0.000196  -0.000139   0.000084   0.000036
    22  H    0.000151   0.000004   0.000001  -0.000001  -0.000000  -0.000000
    23  H    0.000579   0.000001   0.000000   0.000000  -0.000000   0.000000
    24  H    0.000004   0.000000  -0.000000  -0.000000   0.000000  -0.000002
    25  H   -0.000032  -0.000000   0.000000   0.000005   0.000000  -0.000007
    26  H    0.000115  -0.000001   0.000000   0.000008  -0.000000  -0.000000
    27  H   -0.000178  -0.000002   0.000000   0.000244   0.000009  -0.000001
    28  S    0.003065  -0.013399   0.003071  -0.000944  -0.000919   0.000354
    29  O   -0.000332   0.000958  -0.000800  -0.000027   0.000164   0.000005
    30  O   -0.000855   0.011335  -0.001303   0.000080   0.000025  -0.000010
    31  C   -0.000101   0.000425  -0.000074   0.000034   0.000047  -0.000002
    32  H    0.000000   0.000005  -0.000000  -0.000000  -0.000000   0.000000
    33  H    0.000000  -0.000011   0.000000   0.000000   0.000000  -0.000000
    34  H    0.000001   0.000027  -0.000000  -0.000000  -0.000000   0.000000
              19         20         21         22         23         24
     1  O    0.008227  -0.000441  -0.000637  -0.000404  -0.000414   0.006601
     2  N   -0.027508   0.005465   0.004178   0.001928   0.005872  -0.024664
     3  C   -0.001359  -0.000720   0.000802  -0.057369  -0.047528  -0.032325
     4  C   -0.001517   0.001411   0.001055  -0.000504   0.002698   0.014962
[...]
    28  S    0.891395  -0.000074
    29  O   -0.510886   0.000024
    30  O   -0.570572   0.000044
    31  C    0.150873  -0.000005
 Electronic spatial extent (au):  <R**2>=           4772.3232
 Charge=              0.0000 electrons
 Dipole moment (field-independent basis, Debye):
    X=              4.2432    Y=              1.8552    Z=             -2.0635  Tot=              5.0699
 Quadrupole moment (field-independent basis, Debye-Ang):
   XX=           -108.1727   YY=           -109.0602   ZZ=           -115.9586
   XY=              5.6851   XZ=              6.4283   YZ=             -0.6213
 Traceless Quadrupole moment (field-independent basis, Debye-Ang):
   XX=              2.8911   YY=              2.0037   ZZ=             -4.8948
   XY=              5.6851   XZ=              6.4283   YZ=             -0.6213
 Octapole moment (field-independent basis, Debye-Ang**2):
  XXX=            189.7691  YYY=             -3.8270  ZZZ=              0.3884  XYY=            -14.2132
  XXY=             -7.9286  XXZ=             -8.5079  XZZ=             -0.8289  YZZ=              6.0332
  YYZ=             -2.3394  XYZ=              0.5366
 Hexadecapole moment (field-independent basis, Debye-Ang**3):
 XXXX=          -3986.7587 YYYY=          -1374.1802 ZZZZ=           -670.0030 XXXY=            -14.5979
 XXXZ=            121.1972 YYYX=            -15.6695 YYYZ=              0.8796 ZZZX=            -11.9047
 ZZZY=             -1.8980 XXYY=           -937.3110 XXZZ=           -855.9496 YYZZ=           -348.1405
 XXYZ=             -4.2949 YYXZ=             -4.4177 ZZXY=             14.8427
 N-N= 1.520855747975D+03 E-N=-6.497101631217D+03  KE= 1.459885431510D+03
                          Isotropic Fermi Contact Couplings
        Atom                 a.u.       MegaHertz       Gauss      10(-4) cm-1
     1  O(17)              0.08638     -52.36524     -18.68522     -17.46716
     2  N(14)              0.10551      34.08919      12.16387      11.37093
     3  C(13)             -0.01515     -17.03213      -6.07749      -5.68131
     4  C(13)              0.00009       0.10538       0.03760       0.03515
     5  C(13)             -0.00045      -0.50095      -0.17875      -0.16710
     6  C(13)             -0.00060      -0.67218      -0.23985      -0.22421
     7  S(33)              0.00002       0.00551       0.00197       0.00184
     8  C(13)             -0.01517     -17.05422      -6.08537      -5.68868
     9  C(13)              0.01713      19.25208       6.86962       6.42180
    10  C(13)              0.01375      15.45238       5.51379       5.15436
    11  C(13)              0.01256      14.12222       5.03916       4.71067
    12  C(13)              0.01819      20.44762       7.29622       6.82059
    13  H(1)              -0.00030      -1.32679      -0.47343      -0.44257
    14  H(1)              -0.00003      -0.15487      -0.05526      -0.05166
    15  H(1)               0.00005       0.23930       0.08539       0.07982
    16  H(1)              -0.00034      -1.50662      -0.53760      -0.50256
    17  H(1)               0.00043       1.93634       0.69093       0.64589
    18  H(1)              -0.00051      -2.26233      -0.80726      -0.75463
    19  H(1)              -0.00051      -2.29370      -0.81845      -0.76510
    20  H(1)               0.00024       1.09139       0.38943       0.36405
    21  H(1)              -0.00039      -1.74604      -0.62303      -0.58242
    22  H(1)              -0.00039      -1.73082      -0.61760      -0.57734
    23  H(1)               0.00019       0.86379       0.30822       0.28813
    24  H(1)              -0.00048      -2.14396      -0.76502      -0.71515
    25  H(1)              -0.00049      -2.20794      -0.78785      -0.73649
    26  H(1)               0.00049       2.18102       0.77824       0.72751
    27  H(1)              -0.00034      -1.53326      -0.54711      -0.51144
    28  S(33)             -0.00001      -0.00412      -0.00147      -0.00137
    29  O(17)             -0.00001       0.00501       0.00179       0.00167
    30  O(17)             -0.00002       0.00949       0.00338       0.00316
    31  C(13)              0.00001       0.01242       0.00443       0.00414
    32  H(1)              -0.00000      -0.00035      -0.00013      -0.00012
    33  H(1)               0.00000       0.00627       0.00224       0.00209
    34  H(1)               0.00000       0.00024       0.00009       0.00008
 --------------------------------------------------------
       Center         ----  Spin Dipole Couplings  ----
                      3XX-RR        3YY-RR        3ZZ-RR
 --------------------------------------------------------
     1   Atom       -0.578594     -0.906839      1.485432
     2   Atom       -0.297239     -0.568997      0.866235
     3   Atom       -0.007327      0.010305     -0.002979
     4   Atom        0.006798     -0.005486     -0.001311
     5   Atom        0.009573     -0.006946     -0.002627
     6   Atom        0.002026     -0.001293     -0.000733
     7   Atom        0.003288     -0.001514     -0.001774
     8   Atom        0.000362      0.005432     -0.005794
     9   Atom       -0.010671      0.001893      0.008778
    10   Atom       -0.007321      0.017426     -0.010105
    11   Atom        0.002174      0.000486     -0.002660
    12   Atom       -0.016748      0.018530     -0.001782
    13   Atom        0.001635     -0.001179     -0.000457
    14   Atom        0.001416     -0.001232     -0.000184
    15   Atom        0.001153     -0.000677     -0.000476
    16   Atom        0.003426     -0.003313     -0.000112
    17   Atom        0.000391      0.002156     -0.002548
    18   Atom       -0.002287      0.003958     -0.001670
    19   Atom       -0.004975      0.010304     -0.005329
    20   Atom       -0.001163      0.003919     -0.002756
    21   Atom       -0.005392      0.000426      0.004966
    22   Atom       -0.005210     -0.002179      0.007389
    23   Atom       -0.002554      0.003502     -0.000947
    24   Atom       -0.002391      0.005063     -0.002672
    25   Atom       -0.004383      0.008716     -0.004333
    26   Atom       -0.002661      0.005284     -0.002624
    27   Atom        0.000034      0.001763     -0.001797
    28   Atom        0.001438     -0.000737     -0.000701
    29   Atom        0.001507     -0.000708     -0.000799
    30   Atom        0.001112     -0.000619     -0.000493
    31   Atom        0.000677     -0.000335     -0.000341
    32   Atom        0.000629     -0.000314     -0.000315
    33   Atom        0.000524     -0.000252     -0.000273
    34   Atom        0.000554     -0.000287     -0.000267
 --------------------------------------------------------
                        XY            XZ            YZ
 --------------------------------------------------------
     1   Atom       -0.201683      1.112022     -0.483970
     2   Atom       -0.136561      0.682351     -0.291692
     3   Atom       -0.006623     -0.002203      0.007805
     4   Atom       -0.006295     -0.006255      0.003597
     5   Atom        0.002199     -0.006893     -0.001834
     6   Atom        0.000890     -0.001802     -0.000409
     7   Atom        0.001497      0.000600      0.000377
     8   Atom        0.011742     -0.002704     -0.004080
     9   Atom        0.010643      0.008552      0.022023
    10   Atom       -0.012697      0.005375     -0.018090
    11   Atom        0.014396      0.014175      0.017388
    12   Atom       -0.005041      0.000778     -0.022774
    13   Atom       -0.002633     -0.002923      0.001910
    14   Atom        0.000293     -0.001657     -0.000237
    15   Atom        0.001536     -0.001639     -0.000955
    16   Atom        0.003857      0.007372      0.001993
    17   Atom        0.005153      0.000602      0.001041
    18   Atom        0.005022      0.002145      0.008040
    19   Atom       -0.001008     -0.001362     -0.005553
    20   Atom        0.003186     -0.001001     -0.003318
    21   Atom        0.000787      0.000243     -0.007296
    22   Atom        0.000782      0.002977      0.005469
    23   Atom       -0.000855     -0.000003      0.004771
    24   Atom        0.005357      0.001727      0.007369
    25   Atom       -0.001252     -0.001192     -0.005686
    26   Atom       -0.003466     -0.000581      0.000585
    27   Atom       -0.006248      0.005193     -0.004058
    28   Atom       -0.000188     -0.000195      0.000030
    29   Atom       -0.000547      0.000329     -0.000077
    30   Atom       -0.000343     -0.000565      0.000142
    31   Atom       -0.000040     -0.000052      0.000002
    32   Atom        0.000042      0.000066      0.000003
    33   Atom       -0.000121     -0.000025      0.000004
    34   Atom        0.000025     -0.000140     -0.000004
 --------------------------------------------------------


 ---------------------------------------------------------------------------------
              Anisotropic Spin Dipole Couplings in Principal Axis System
 ---------------------------------------------------------------------------------

       Atom             a.u.   MegaHertz   Gauss  10(-4) cm-1        Axes

              Baa    -1.0648    77.049    27.493    25.701  0.9001 -0.1273 -0.4166
     1 O(17)  Bbb    -0.9983    72.234    25.775    24.095  0.1873  0.9765  0.1064
              Bcc     2.0631  -149.283   -53.268   -49.795  0.3933 -0.1738  0.9028
 
              Baa    -0.6266   -24.166    -8.623    -8.061  0.1810  0.9775  0.1083
     2 N(14)  Bbb    -0.6120   -23.602    -8.422    -7.873  0.8927 -0.1171 -0.4352
              Bcc     1.2386    47.768    17.045    15.934  0.4127 -0.1754  0.8938
 
              Baa    -0.0096    -1.285    -0.459    -0.429  0.9306  0.3510 -0.1044
     3 C(13)  Bbb    -0.0064    -0.859    -0.307    -0.287  0.2292 -0.3360  0.9136
              Bcc     0.0160     2.144     0.765     0.715 -0.2856  0.8741  0.3931
 
              Baa    -0.0083    -1.118    -0.399    -0.373  0.3009  0.9305 -0.2087
     4 C(13)  Bbb    -0.0047    -0.631    -0.225    -0.211  0.4925  0.0358  0.8696
              Bcc     0.0130     1.749     0.624     0.583  0.8167 -0.3645 -0.4475
 
              Baa    -0.0076    -1.024    -0.365    -0.342  0.0390  0.9197  0.3907
     5 C(13)  Bbb    -0.0054    -0.728    -0.260    -0.243  0.4323 -0.3680  0.8232
              Bcc     0.0131     1.752     0.625     0.585  0.9009  0.1368 -0.4119
 
              Baa    -0.0016    -0.219    -0.078    -0.073  0.4733 -0.2130  0.8548
     6 C(13)  Bbb    -0.0015    -0.202    -0.072    -0.067 -0.0927  0.9529  0.2888
              Bcc     0.0031     0.420     0.150     0.140  0.8760  0.2160 -0.4312
 
              Baa    -0.0021    -0.086    -0.031    -0.029 -0.1444  0.7692 -0.6225
     7 S(33)  Bbb    -0.0017    -0.070    -0.025    -0.023 -0.2659  0.5758  0.7731
              Bcc     0.0038     0.156     0.056     0.052  0.9531  0.2772  0.1213
 
              Baa    -0.0092    -1.235    -0.441    -0.412  0.7405 -0.6459 -0.1857
     8 C(13)  Bbb    -0.0068    -0.912    -0.325    -0.304  0.2825  0.0484  0.9581
              Bcc     0.0160     2.147     0.766     0.716  0.6098  0.7619 -0.2183
 
              Baa    -0.0186    -2.490    -0.888    -0.831 -0.5289  0.7341 -0.4260
     9 C(13)  Bbb    -0.0133    -1.787    -0.638    -0.596  0.7933  0.2492 -0.5555
              Bcc     0.0319     4.277     1.526     1.427  0.3016  0.6317  0.7141
 
              Baa    -0.0192    -2.571    -0.917    -0.858  0.1064  0.4702  0.8761
    10 C(13)  Bbb    -0.0121    -1.629    -0.581    -0.543  0.9359  0.2502 -0.2479
              Bcc     0.0313     4.200     1.499     1.401 -0.3358  0.8464 -0.4134
 
              Baa    -0.0186    -2.497    -0.891    -0.833 -0.0823 -0.6364  0.7670
    11 C(13)  Bbb    -0.0121    -1.620    -0.578    -0.540  0.8118 -0.4892 -0.3188
              Bcc     0.0307     4.117     1.469     1.373  0.5781  0.5964  0.5569
 
              Baa    -0.0190    -2.546    -0.909    -0.849  0.7540  0.4120  0.5116
    12 C(13)  Bbb    -0.0148    -1.981    -0.707    -0.661 -0.6504  0.3593  0.6692
              Bcc     0.0337     4.527     1.616     1.510 -0.0919  0.8374 -0.5389
 
              Baa    -0.0028    -1.500    -0.535    -0.500  0.2833  0.8860 -0.3670
    13 H(1)   Bbb    -0.0025    -1.339    -0.478    -0.447  0.6223  0.1213  0.7733
              Bcc     0.0053     2.839     1.013     0.947  0.7297 -0.4475 -0.5171
 
              Baa    -0.0013    -0.692    -0.247    -0.231  0.2068  0.8476  0.4887
    14 H(1)   Bbb    -0.0012    -0.638    -0.228    -0.213  0.4981 -0.5212  0.6930
              Bcc     0.0025     1.331     0.475     0.444  0.8421  0.1001 -0.5300
 
              Baa    -0.0016    -0.830    -0.296    -0.277 -0.3508  0.8989  0.2627
    15 H(1)   Bbb    -0.0015    -0.796    -0.284    -0.265  0.5409 -0.0345  0.8404
              Bcc     0.0030     1.626     0.580     0.542  0.7644  0.4369 -0.4741
 
              Baa    -0.0063    -3.360    -1.199    -1.121  0.6487 -0.4102 -0.6410
    16 H(1)   Bbb    -0.0043    -2.270    -0.810    -0.757  0.0491  0.8631 -0.5027
              Bcc     0.0106     5.630     2.009     1.878  0.7594  0.2946  0.5800
 
              Baa    -0.0040    -2.128    -0.759    -0.710  0.7430 -0.6501  0.1591
    17 H(1)   Bbb    -0.0027    -1.423    -0.508    -0.475 -0.2039  0.0065  0.9790
              Bcc     0.0067     3.550     1.267     1.184  0.6374  0.7598  0.1277
 
              Baa    -0.0077    -4.123    -1.471    -1.375  0.2899 -0.6240  0.7257
    18 H(1)   Bbb    -0.0040    -2.124    -0.758    -0.709  0.8877 -0.1082 -0.4476
              Bcc     0.0117     6.247     2.229     2.084  0.3578  0.7739  0.5225
 
              Baa    -0.0080    -4.250    -1.517    -1.418  0.4744  0.2799  0.8346
    19 H(1)   Bbb    -0.0041    -2.202    -0.786    -0.735  0.8797 -0.1160 -0.4611
              Bcc     0.0121     6.452     2.302     2.152 -0.0323  0.9530 -0.3012
 
              Baa    -0.0042    -2.225    -0.794    -0.742 -0.1552  0.4266  0.8910
    20 H(1)   Bbb    -0.0025    -1.348    -0.481    -0.450  0.9076 -0.2945  0.2991
              Bcc     0.0067     3.573     1.275     1.192  0.3901  0.8551 -0.3414
 
              Baa    -0.0060    -3.191    -1.139    -1.064  0.7995 -0.4914 -0.3453
    21 H(1)   Bbb    -0.0044    -2.327    -0.830    -0.776  0.6004  0.6374  0.4830
              Bcc     0.0103     5.518     1.969     1.841 -0.0173 -0.5934  0.8047
 
              Baa    -0.0060    -3.197    -1.141    -1.066  0.9175  0.2525 -0.3073
    22 H(1)   Bbb    -0.0045    -2.383    -0.850    -0.795 -0.3493  0.8812 -0.3187
              Bcc     0.0105     5.581     1.991     1.861  0.1903  0.3998  0.8966
 
              Baa    -0.0041    -2.200    -0.785    -0.734 -0.2877 -0.5309  0.7971
    23 H(1)   Bbb    -0.0025    -1.320    -0.471    -0.440  0.9545 -0.0904  0.2842
              Bcc     0.0066     3.520     1.256     1.174 -0.0789  0.8426  0.5328
 
              Baa    -0.0076    -4.060    -1.449    -1.354  0.3474 -0.5768  0.7394
    24 H(1)   Bbb    -0.0041    -2.165    -0.772    -0.722  0.8638 -0.1101 -0.4917
              Bcc     0.0117     6.225     2.221     2.076  0.3650  0.8094  0.4600
 
              Baa    -0.0073    -3.895    -1.390    -1.299  0.4743  0.3272  0.8173
    25 H(1)   Bbb    -0.0036    -1.912    -0.682    -0.638  0.8790 -0.1235 -0.4606
              Bcc     0.0109     5.807     2.072     1.937 -0.0498  0.9369 -0.3462
 
              Baa    -0.0040    -2.158    -0.770    -0.720  0.9148  0.3248  0.2403
    26 H(1)   Bbb    -0.0026    -1.388    -0.495    -0.463 -0.1978 -0.1587  0.9673
              Bcc     0.0066     3.545     1.265     1.183 -0.3523  0.9324  0.0809
 
              Baa    -0.0064    -3.424    -1.222    -1.142  0.7500  0.2743 -0.6019
    27 H(1)   Bbb    -0.0042    -2.236    -0.798    -0.746  0.2596  0.7150  0.6492
              Bcc     0.0106     5.660     2.020     1.888 -0.6084  0.6431 -0.4650
 
              Baa    -0.0008    -0.031    -0.011    -0.010  0.0515  0.9424 -0.3306
    28 S(33)  Bbb    -0.0007    -0.029    -0.010    -0.010  0.1133  0.3234  0.9395
              Bcc     0.0015     0.060     0.022     0.020  0.9922 -0.0858 -0.0901
 
              Baa    -0.0008     0.061     0.022     0.020 -0.1201  0.0783  0.9897
    29 O(17)  Bbb    -0.0008     0.060     0.022     0.020  0.2335  0.9711 -0.0485
              Bcc     0.0017    -0.122    -0.043    -0.041  0.9649 -0.2252  0.1349
 
              Baa    -0.0007     0.052     0.018     0.017 -0.0487  0.7763 -0.6285
    30 O(17)  Bbb    -0.0006     0.047     0.017     0.016  0.3477  0.6030  0.7180
              Bcc     0.0014    -0.098    -0.035    -0.033  0.9364 -0.1835 -0.2992
 
              Baa    -0.0003    -0.046    -0.016    -0.015  0.0533  0.0556  0.9970
    31 C(13)  Bbb    -0.0003    -0.045    -0.016    -0.015  0.0368  0.9977 -0.0576
              Bcc     0.0007     0.091     0.033     0.030  0.9979 -0.0398 -0.0511
 
              Baa    -0.0003    -0.171    -0.061    -0.057 -0.0707  0.0264  0.9971
    32 H(1)   Bbb    -0.0003    -0.168    -0.060    -0.056 -0.0422  0.9987 -0.0294
              Bcc     0.0006     0.339     0.121     0.113  0.9966  0.0441  0.0695
 
              Baa    -0.0003    -0.146    -0.052    -0.049  0.0340  0.0159  0.9993
    33 H(1)   Bbb    -0.0003    -0.144    -0.051    -0.048  0.1502  0.9884 -0.0209
              Bcc     0.0005     0.290     0.103     0.097  0.9881 -0.1508 -0.0312
 
              Baa    -0.0003    -0.155    -0.055    -0.052  0.1664 -0.1431  0.9756
    34 H(1)   Bbb    -0.0003    -0.153    -0.055    -0.051 -0.0046  0.9893  0.1459
              Bcc     0.0006     0.308     0.110     0.103  0.9861  0.0288 -0.1639
 

 ---------------------------------------------------------------------------------

 No NMR shielding tensors so no spin-rotation constants.
 Leave Link  601 at Mon Jun 17 21:22:39 2019, MaxMem=  8053063680 cpu:               0.0 elap:               0.3
 (Enter /data2/g16/g16/l9999.exe)
 1\1\GINC-CU09\SP\UPBE1PBE\Gen\C10H18N1O3S2(2)\ROOT\17-Jun-2019\0\\#p g
 en 6d pbe1pbe\\start preoptimized\\0,2\O,0,-3.755782,0.203849,0.884701
 \N,0,-2.610531,0.035669,0.377021\C,0,-2.161433,-1.267829,-0.157632\C,0
 ,-0.879883,-0.851192,-0.817539\C,0,-0.605204,0.448374,-0.657588\C,0,0.
 605245,1.125276,-1.198888\S,0,1.942667,1.441761,0.033285\C,0,-1.692706
 ,1.165435,0.114041\C,0,-1.237336,1.76391,1.448511\C,0,-2.422299,2.2204
 54,-0.721814\C,0,-3.207701,-1.809944,-1.13468\C,0,-1.925442,-2.256464,
 0.988931\H,0,-0.238833,-1.560874,-1.333813\H,0,1.061889,0.539149,-2.00
 2742\H,0,0.388248,2.128795,-1.583368\H,0,-0.670415,1.03514,2.036719\H,
 0,-0.605783,2.644465,1.291961\H,0,-2.123028,2.068991,2.016722\H,0,-3.3
 15792,2.546535,-0.182446\H,0,-1.783085,3.09433,-0.891469\H,0,-2.728398
 ,1.812068,-1.691186\H,0,-3.360685,-1.119358,-1.968764\H,0,-2.889384,-2
 .776933,-1.534376\H,0,-4.160369,-1.940248,-0.609438\H,0,-2.856951,-2.4
 00414,1.54777\H,0,-1.598777,-3.224813,0.595968\H,0,-1.154409,-1.88405,
 1.672999\S,0,2.758323,-0.534388,0.109776\O,0,2.336032,-1.21269,1.35262
 4\O,0,2.507239,-1.182362,-1.204059\C,0,4.510088,-0.16998,0.246946\H,0,
 4.660552,0.447018,1.133687\H,0,4.998413,-1.141187,0.362906\H,0,4.83039
 8,0.333514,-0.666495\\Version=AM64L-G16RevB.01\State=2-A\HF=-1467.5485
 336\S2=0.75501\S2-1=0.\S2A=0.750017\RMSD=8.826e-09\Dipole=1.6726073,0.
 7272302,-0.8076028\Quadrupole=2.1446774,1.4738965,-3.6185739,4.2229397
 ,4.7943262,-0.458155\PG=C01 [X(C10H18N1O3S2)]\\@


 KNIGHT- SIRE, I'VE JUST RETURNED FROM THE FRONT
 KING-   HOW GOES THE BATTLE                    
 KNIGHT- THE SITUATION IS QUITE FLUID           
 KING-   WHAT DOES *THAT* MEAN                  
 KNIGHT- WE'RE UP THE CREEK                     
                THE WIZARD OF ID                
 Elapsed time:       0 days  0 hours  2 minutes 43.6 seconds.
 File lengths (MBytes):  RWF=    181 Int=      0 D2E=      0 Chk=     15 Scr=      1
 Normal termination of Gaussian 16 at Mon Jun 17 21:22:40 2019.
