 Entering Gaussian System, Link 0=g16
 AtFile(1): /home/malgo/Basis_sets/n07d_pbe0.gbs
            -H 0
             6-31G
             S   1 1.00       0.000000000000
                  0.4000000000D+00  0.10000000D+01
             P   1 1.00       0.000000000000
                  0.7500000000D+00  0.10000000D+01
             ****
             -He 0
             6-31+G**
             ****
             -Li 0
             6-31+G**
             ****
             -Be 0
             6-31+G**
             ****
             -B 0
             6-31G
             S   1 1.00       0.000000000000
                  0.7000000000D+01  0.1000000000D+01
             P   1 1.00       0.000000000000
                  0.3500000000D-01  0.1000000000D+01
             D   1 1.00
                  0.3430000000D+00  0.1000000000D+01
             ****
             -C 0
             6-31G
             S   1 1.00       0.000000000000
                  0.8700000000D+01  0.1000000000D+01
             P   1 1.00       0.000000000000
                  0.5000000000D-01  0.1000000000D+01
             D   1 1.00
                  0.8200000000D+00  0.1000000000D+01
             ****
             -N 0
             6-31G
             S   1 1.00       0.000000000000
                  0.1370000000D+02  0.1000000000D+01
             P   1 1.00       0.000000000000
                  0.5300000000D-01  0.1000000000D+01
             D   1 1.00       0.000000000000
                  0.1015000000D+01  0.1000000000D+01
             ****
             -O 0
             6-31G
             S   1 1.00
                  0.1600000000D+02  0.1000000000D+01
             P   1 1.00       0.000000000000
                  0.6500000000D-01  0.1000000000D+01
             D   1 1.00        0.000000000000
                  0.1190000000D+01  0.1000000000D+01
             D   1 1.00        0.000000000000
                  0.1800000000D+00  0.1000000000D+01
             ****
             -F 0
             6-31G
             S   1 1.00
                  0.1770000000D+02  0.1000000000D+01
             P   1 1.00       0.000000000000
                  0.8300000000D-01  0.1000000000D+01
             D   1 1.00       0.000000000000
                  1.3700000000D+00  0.1000000000D+01
             D   1 1.00       0.000000000000
                  0.2300000000D+00  0.1000000000D+01
             ****
             -Ne 0
             6-31+G**
             ****
             -Na 0
             6-31+G**
             ****
             -Mg 0
             6-31+G**
             ****
             -Al 0
             6-31G
             S   1 1.00      0.000000000000
                  0.3100000000D+01  0.1000000000D+01
             P   1 1.00      0.000000000000
                  0.1500000000D-01  0.1000000000D+01
             D   1 1.00      0.000000000000
                  0.1890000000D+00  0.1000000000D+01
             ****
             -Si 0
             6-31G
             S   1 1.00      0.000000000000
                  0.5000000000D+01  0.1000000000D+01
             P   1 1.00       0.000000000000
                  0.3300000000D-01  0.1000000000D+01
             D   1 1.0        0.000000000000
                  0.2750000000D+00  0.1000000000D+01
             ****
             -P  0
             6-31G
             S   1 1.00       0.000000000000
                  0.6300000000D+01  0.1000000000D+01
             P   1 1.00       0.000000000000
                  0.3500000000D-01  0.1000000000D+01
             D   1 1.00       0.000000000000
                  0.3730000000D+00  0.1000000000D+01
             ****
             -S  0
             6-31G
             S   1  1.00      0.000000000000
                  0.7500000000D+01  0.1000000000D+01
             P   1 1.00       0.000000000000
                  0.4100000000D-01  0.1000000000D+01
             D   1 1.00       0.000000000000
                  0.4790000000D+00  0.1000000000D+01
             ****
            -Cl 0
             6-31G
             S   1 1.00       0.000000000000
                  0.8500000000D+01  0.1000000000D+01
             P   1 1.00       0.000000000000
                  0.4800000000D-01  0.1000000000D+01
             D   1 1.00       0.000000000000
                  0.6000000000D+00  0.1000000000D+01
             D   1 1.00       0.000000000000
                  0.1960000000D+00  0.1000000000D+01
             ****
            -Br 0
             S   3 1.00       0.000000000000
                  0.4721881000D+01  0.1749732514D+00
                  0.2257555000D+01 -0.7074172290D+00
                  0.3896080000D+00  0.1258999543D+01
             S   1 1.00       0.000000000000
                  0.1471340000D+00  0.1000000000D+01
             P   3 1.00       0.000000000000
                  0.1896942000D+01 -0.2464576731D+00
                  0.9108990000D+00  0.3623179892D+00
                  0.3168550000D+00  0.8338469725D+00
             P   1 1.00       0.000000000000
                  0.1095030000D+00  0.1000000000D+01
             P   1 1.00       0.000000000000
                  0.3609700000D-01  0.1000000000D+01
             D   1 1.00
                  0.4750000000D+00  0.1000000000D+01
             D   1 1.00
                  0.1280000000D+00  0.1000000000D+01
             ****
            -I   0
             S   3 1.00       0.000000000000
                  0.2122765000D+01  0.2063429899D+01
                  0.1770481000D+01 -0.2869526473D+01
                  0.3130840000D+00  0.1404747074D+01
             S   1 1.00       0.000000000000
                  0.1320000000D+00  0.1000000000D+01
             P   3 1.00       0.000000000000
                  0.2432887000D+01  0.7732753148D+00
                  0.2137249000D+01 -0.1020833156D+01
                  0.3145460000D+00  0.1095666871D+01
             P   1 1.00       0.000000000000
                  0.1049450000D+00  0.1000000000D+01
             P   1 1.00       0.000000000000
                  0.3264100000D-01  0.1000000000D+01
             D   1 1.00
                  0.300000000          1.00000000
             D   1 1.00
                  0.090000000          1.00000000
             ****
             -Zn 0
             SP   6 1.00       0.000000000000
                  0.6936492000D+02 -0.4440098182D-02 -0.7689261805D-02
                  0.2362082000D+02  0.7505253308D-01 -0.2997981924D-01
                  0.1018471000D+02  0.2533111104D+00  0.7082410821D-01
                  0.4334082000D+01 -0.2881897118D+00  0.4046140897D+00
                  0.1810918000D+01 -0.7267052298D+00  0.4882324876D+00
                  0.7148410000D+00 -0.2133439088D+00  0.1751969956D+00
             SP   3 1.00       0.000000000000
                  0.2823842000D+01  0.4898545031D-01 -0.1586762981D+00
                  0.1039543000D+01  0.2592794075D+00  0.8379326898D-01
                  0.1432640000D+00 -0.1115711463D+01  0.9840546881D+00
             SP   1 1.00       0.000000000000
                  0.4929600000D-01  0.1000000000D+01  0.1000000000D+01
             S    1 1.00       0.000000000000
                  0.1620000000D+00  0.1000000000D+01
             D    3 1.00       0.000000000000
                  0.3370764000D+02  0.9262647815D-01
                  0.9061106000D+01  0.4002979920D+00
                  0.2738383000D+01  0.6896607863D+00
             D    1 1.00
                  0.2440000000D+01  0.1000000000D+01
             D    1 1.00       0.000000000000
                  0.7302940000D+00  0.1000000000D+01
             D    1 1.00       0.000000000000
                  0.1620000000D+00  0.1000000000D+01
            ****
 Initial command:
 /data2/g16/g16/l1.exe "/tmp/Gau-20644.inp" -scrdir="/tmp/"
 Entering Link 1 = /data2/g16/g16/l1.exe PID=     20645.
  
 Copyright (c) 1988-2017, Gaussian, Inc.  All Rights Reserved.
  
 This is part of the Gaussian(R) 16 program.  It is based on
 the Gaussian(R) 09 system (copyright 2009, Gaussian, Inc.),
 the Gaussian(R) 03 system (copyright 2003, Gaussian, Inc.),
 the Gaussian(R) 98 system (copyright 1998, Gaussian, Inc.),
 the Gaussian(R) 94 system (copyright 1995, Gaussian, Inc.),
 the Gaussian 92(TM) system (copyright 1992, Gaussian, Inc.),
 the Gaussian 90(TM) system (copyright 1990, Gaussian, Inc.),
 the Gaussian 88(TM) system (copyright 1988, Gaussian, Inc.),
 the Gaussian 86(TM) system (copyright 1986, Carnegie Mellon
 University), and the Gaussian 82(TM) system (copyright 1983,
 Carnegie Mellon University). Gaussian is a federally registered
 trademark of Gaussian, Inc.
  
 This software contains proprietary and confidential information,
 including trade secrets, belonging to Gaussian, Inc.
  
 This software is provided under written license and may be
 used, copied, transmitted, or stored only in accord with that
 written license.
  
 The following legend is applicable only to US Government
 contracts under FAR:
  
                    RESTRICTED RIGHTS LEGEND
  
 Use, reproduction and disclosure by the US Government is
 subject to restrictions as set forth in subparagraphs (a)
 and (c) of the Commercial Computer Software - Restricted
 Rights clause in FAR 52.227-19.
  
 Gaussian, Inc.
 340 Quinnipiac St., Bldg. 40, Wallingford CT 06492
  
  
 ---------------------------------------------------------------
 Warning -- This program may not be used in any manner that
 competes with the business of Gaussian, Inc. or will provide
 assistance to any competitor of Gaussian, Inc.  The licensee
 of this program is prohibited from giving any competitor of
 Gaussian, Inc. access to this program.  By using this program,
 the user acknowledges that Gaussian, Inc. is engaged in the
 business of creating and licensing software in the field of
 computational chemistry and represents and warrants to the
 licensee that it is not a competitor of Gaussian, Inc. and that
 it will not use this program in any manner prohibited above.
 ---------------------------------------------------------------
  

 Cite this work as:
 Gaussian 16, Revision B.01,
 M. J. Frisch, G. W. Trucks, H. B. Schlegel, G. E. Scuseria, 
 M. A. Robb, J. R. Cheeseman, G. Scalmani, V. Barone, 
 G. A. Petersson, H. Nakatsuji, X. Li, M. Caricato, A. V. Marenich, 
 J. Bloino, B. G. Janesko, R. Gomperts, B. Mennucci, H. P. Hratchian, 
 J. V. Ortiz, A. F. Izmaylov, J. L. Sonnenberg, D. Williams-Young, 
 F. Ding, F. Lipparini, F. Egidi, J. Goings, B. Peng, A. Petrone, 
 T. Henderson, D. Ranasinghe, V. G. Zakrzewski, J. Gao, N. Rega, 
 G. Zheng, W. Liang, M. Hada, M. Ehara, K. Toyota, R. Fukuda, 
 J. Hasegawa, M. Ishida, T. Nakajima, Y. Honda, O. Kitao, H. Nakai, 
 T. Vreven, K. Throssell, J. A. Montgomery, Jr., J. E. Peralta, 
 F. Ogliaro, M. J. Bearpark, J. J. Heyd, E. N. Brothers, K. N. Kudin, 
 V. N. Staroverov, T. A. Keith, R. Kobayashi, J. Normand, 
 K. Raghavachari, A. P. Rendell, J. C. Burant, S. S. Iyengar, 
 J. Tomasi, M. Cossi, J. M. Millam, M. Klene, C. Adamo, R. Cammi, 
 J. W. Ochterski, R. L. Martin, K. Morokuma, O. Farkas, 
 J. B. Foresman, and D. J. Fox, Gaussian, Inc., Wallingford CT, 2016.
 
 ******************************************
 Gaussian 16:  AM64L-G16RevB.01 20-Dec-2017
                17-Jun-2019 
 ******************************************
 %chk=MTN_PBE0_-0.24.chk
 %mem=60GB
 %nprocshared=12
 Will use up to   12 processors via shared memory.
 -----------------
 #p gen 6d pbe1pbe
 -----------------
 1/38=1,172=1/1;
 2/12=2,17=6,18=5,40=1/2;
 3/5=7,8=2,11=2,25=1,30=1,74=-13/1,2,3;
 4//1;
 5/5=2,38=5/2;
 6/7=2,8=2,9=2,10=2,28=1/1;
 99/5=1,9=1/99;
 Leave Link    1 at Mon Jun 17 21:25:17 2019, MaxMem=  8053063680 cpu:               0.0 elap:               0.1
 (Enter /data2/g16/g16/l101.exe)
 ------------------
 start preoptimized
 ------------------
 Symbolic Z-matrix:
 Charge =  0 Multiplicity = 2
 O                    -3.75958   0.20545   0.8777 
 N                    -2.60913   0.03527   0.37982 
 C                    -2.16103  -1.26783  -0.15703 
 C                    -0.88068  -0.85059  -0.81914 
 C                    -0.6056    0.44877  -0.65799 
 C                     0.60505   1.12548  -1.19909 
 S                     1.94247   1.44136   0.03329 
 C                    -1.69231   1.16543   0.11504 
 C                    -1.23534   1.76471   1.44871 
 C                    -2.4239    2.21965  -0.72001 
 C                    -3.2101   -1.80914  -1.13168 
 C                    -1.92144  -2.25766   0.98793 
 H                    -0.24023  -1.56007  -1.33641 
 H                     1.06169   0.53935  -2.00314 
 H                     0.38845   2.1292   -1.58337 
 H                    -0.66702   1.03654   2.03652 
 H                    -0.60458   2.64567   1.29116 
 H                    -2.12043   2.06959   2.01812 
 H                    -3.31659   2.54534  -0.17925 
 H                    -1.78529   3.09373  -0.89107 
 H                    -2.7314    1.81067  -1.68879 
 H                    -3.36549  -1.11796  -1.96476 
 H                    -2.89298  -2.77573  -1.53298 
 H                    -4.16137  -1.93965  -0.60364 
 H                    -2.85135  -2.40301   1.54937 
 H                    -1.59518  -3.22541   0.59317 
 H                    -1.14861  -1.88545   1.6704 
 S                     2.75852  -0.53459   0.10998 
 O                     2.33643  -1.21289   1.35282 
 O                     2.50764  -1.18296  -1.20386 
 C                     4.51009  -0.16938   0.24735 
 H                     4.66015   0.44782   1.13389 
 H                     4.99881  -1.14039   0.36351 
 H                     4.8304    0.33391  -0.6663 
 
 ITRead=  0  0  0  0  0  0  0  0  0  0  0  0  0  0  0  0  0  0  0  0
 ITRead=  0  0  0  0  0  0  0  0  0  0  0  0  0  0
 MicOpt= -1 -1 -1 -1 -1 -1 -1 -1 -1 -1 -1 -1 -1 -1 -1 -1 -1 -1 -1 -1
 MicOpt= -1 -1 -1 -1 -1 -1 -1 -1 -1 -1 -1 -1 -1 -1
 NAtoms=     34 NQM=       34 NQMF=       0 NMMI=      0 NMMIF=      0
                NMic=       0 NMicF=      0.
                    Isotopes and Nuclear Properties:
 (Nuclear quadrupole moments (NQMom) in fm**2, nuclear magnetic moments (NMagM)
  in nuclear magnetons)

  Atom         1           2           3           4           5           6           7           8           9          10
 IAtWgt=          16          14          12          12          12          12          32          12          12          12
 AtmWgt=  15.9949146  14.0030740  12.0000000  12.0000000  12.0000000  12.0000000  31.9720718  12.0000000  12.0000000  12.0000000
 NucSpn=           0           2           0           0           0           0           0           0           0           0
 AtZEff=   0.0000000   0.0000000   0.0000000   0.0000000   0.0000000   0.0000000   0.0000000   0.0000000   0.0000000   0.0000000
 NQMom=    0.0000000   2.0440000   0.0000000   0.0000000   0.0000000   0.0000000   0.0000000   0.0000000   0.0000000   0.0000000
 NMagM=    0.0000000   0.4037610   0.0000000   0.0000000   0.0000000   0.0000000   0.0000000   0.0000000   0.0000000   0.0000000
 AtZNuc=   8.0000000   7.0000000   6.0000000   6.0000000   6.0000000   6.0000000  16.0000000   6.0000000   6.0000000   6.0000000

  Atom        11          12          13          14          15          16          17          18          19          20
 IAtWgt=          12          12           1           1           1           1           1           1           1           1
 AtmWgt=  12.0000000  12.0000000   1.0078250   1.0078250   1.0078250   1.0078250   1.0078250   1.0078250   1.0078250   1.0078250
 NucSpn=           0           0           1           1           1           1           1           1           1           1
 AtZEff=   0.0000000   0.0000000   0.0000000   0.0000000   0.0000000   0.0000000   0.0000000   0.0000000   0.0000000   0.0000000
 NQMom=    0.0000000   0.0000000   0.0000000   0.0000000   0.0000000   0.0000000   0.0000000   0.0000000   0.0000000   0.0000000
 NMagM=    0.0000000   0.0000000   2.7928460   2.7928460   2.7928460   2.7928460   2.7928460   2.7928460   2.7928460   2.7928460
 AtZNuc=   6.0000000   6.0000000   1.0000000   1.0000000   1.0000000   1.0000000   1.0000000   1.0000000   1.0000000   1.0000000

  Atom        21          22          23          24          25          26          27          28          29          30
 IAtWgt=           1           1           1           1           1           1           1          32          16          16
 AtmWgt=   1.0078250   1.0078250   1.0078250   1.0078250   1.0078250   1.0078250   1.0078250  31.9720718  15.9949146  15.9949146
 NucSpn=           1           1           1           1           1           1           1           0           0           0
 AtZEff=   0.0000000   0.0000000   0.0000000   0.0000000   0.0000000   0.0000000   0.0000000   0.0000000   0.0000000   0.0000000
 NQMom=    0.0000000   0.0000000   0.0000000   0.0000000   0.0000000   0.0000000   0.0000000   0.0000000   0.0000000   0.0000000
 NMagM=    2.7928460   2.7928460   2.7928460   2.7928460   2.7928460   2.7928460   2.7928460   0.0000000   0.0000000   0.0000000
 AtZNuc=   1.0000000   1.0000000   1.0000000   1.0000000   1.0000000   1.0000000   1.0000000  16.0000000   8.0000000   8.0000000

  Atom        31          32          33          34
 IAtWgt=          12           1           1           1
 AtmWgt=  12.0000000   1.0078250   1.0078250   1.0078250
 NucSpn=           0           1           1           1
 AtZEff=   0.0000000   0.0000000   0.0000000   0.0000000
 NQMom=    0.0000000   0.0000000   0.0000000   0.0000000
 NMagM=    0.0000000   2.7928460   2.7928460   2.7928460
 AtZNuc=   6.0000000   1.0000000   1.0000000   1.0000000
 Leave Link  101 at Mon Jun 17 21:25:17 2019, MaxMem=  8053063680 cpu:               0.0 elap:               0.2
 (Enter /data2/g16/g16/l202.exe)
                          Input orientation:                          
 ---------------------------------------------------------------------
 Center     Atomic      Atomic             Coordinates (Angstroms)
 Number     Number       Type             X           Y           Z
 ---------------------------------------------------------------------
      1          8           0       -3.759582    0.205449    0.877701
      2          7           0       -2.609131    0.035269    0.379821
      3          6           0       -2.161033   -1.267829   -0.157032
      4          6           0       -0.880683   -0.850592   -0.819139
      5          6           0       -0.605604    0.448774   -0.657988
      6          6           0        0.605045    1.125476   -1.199088
      7         16           0        1.942467    1.441361    0.033285
      8          6           0       -1.692306    1.165435    0.115041
      9          6           0       -1.235336    1.764710    1.448711
     10          6           0       -2.423899    2.219654   -0.720014
     11          6           0       -3.210101   -1.809144   -1.131680
     12          6           0       -1.921442   -2.257664    0.987931
     13          1           0       -0.240233   -1.560074   -1.336413
     14          1           0        1.061689    0.539349   -2.003142
     15          1           0        0.388448    2.129195   -1.583368
     16          1           0       -0.667015    1.036540    2.036519
     17          1           0       -0.604583    2.645665    1.291161
     18          1           0       -2.120428    2.069591    2.018122
     19          1           0       -3.316592    2.545335   -0.179246
     20          1           0       -1.785285    3.093730   -0.891069
     21          1           0       -2.731398    1.810668   -1.688786
     22          1           0       -3.365485   -1.117958   -1.964764
     23          1           0       -2.892984   -2.775733   -1.532976
     24          1           0       -4.161369   -1.939648   -0.603638
     25          1           0       -2.851351   -2.403014    1.549370
     26          1           0       -1.595177   -3.225413    0.593168
     27          1           0       -1.148609   -1.885450    1.670399
     28         16           0        2.758523   -0.534588    0.109976
     29          8           0        2.336432   -1.212890    1.352824
     30          8           0        2.507639   -1.182962   -1.203859
     31          6           0        4.510088   -0.169380    0.247346
     32          1           0        4.660152    0.447818    1.133887
     33          1           0        4.998813   -1.140387    0.363506
     34          1           0        4.830398    0.333914   -0.666295
 ---------------------------------------------------------------------
                    Distance matrix (angstroms):
                    1          2          3          4          5
     1  O    0.000000
     2  N    1.265063   0.000000
     3  C    2.407609   1.478874   0.000000
     4  C    3.504647   2.282496   1.500589   0.000000
     5  C    3.516408   2.293939   2.370030   1.337905   0.000000
     6  C    4.920312   3.743318   3.803285   2.501318   1.488753
     7  S    5.895242   4.776424   4.920838   3.734950   2.820594
     8  C    2.403509   1.479173   2.492890   2.365542   1.513968
     9  C    3.021451   2.453733   3.554099   3.479760   2.562505
    10  C    2.897199   2.452649   3.542398   3.437696   2.538909
    11  C    2.897952   2.459199   1.530851   2.538246   3.479365
    12  C    3.075359   2.469870   1.532357   2.515658   3.430056
    13  H    4.517210   3.332005   2.272844   1.086790   2.151564
    14  H    5.626313   4.405398   4.130369   2.665822   2.144180
    15  H    5.192669   4.150195   4.480408   3.327742   2.160621
    16  H    3.405516   2.742081   3.514808   3.429534   2.758552
    17  H    4.009940   3.415102   4.453677   4.093093   2.936922
    18  H    2.731741   2.657316   3.983882   4.256112   3.476105
    19  H    2.605464   2.667112   3.984474   4.227935   3.460378
    20  H    3.920276   3.412927   4.438828   4.047364   2.905472
    21  H    3.196990   2.728759   3.485503   3.356149   2.726958
    22  H    3.160115   2.720125   2.177398   2.749215   3.432092
    23  H    3.930624   3.411905   2.168582   2.874906   4.049093
    24  H    2.637658   2.697579   2.156882   3.463435   4.283804
    25  H    2.842552   2.715095   2.162635   3.450128   4.248353
    26  H    4.066500   3.421355   2.171435   2.853925   4.005533
    27  H    3.437646   2.736399   2.178523   2.709338   3.341383
    28  S    6.604752   5.404559   4.981061   3.769209   3.588052
    29  O    6.276847   5.192613   4.744457   3.898527   3.931929
    30  O    6.748232   5.493038   4.785347   3.426252   3.557080
    31  C    8.302125   7.123392   6.773032   5.537315   5.231830
    32  H    8.427117   7.319924   7.151117   6.016729   5.562284
    33  H    8.876100   7.698262   7.179874   6.004257   5.914252
    34  H    8.728584   7.518653   7.190621   5.834626   5.437222
                    6          7          8          9         10
     6  C    0.000000
     7  S    1.845867   0.000000
     8  C    2.646952   3.646148   0.000000
     9  C    3.287318   3.493768   1.531871   0.000000
    10  C    3.255954   4.498706   1.530988   2.514562   0.000000
    11  C    4.813718   6.202571   3.564567   4.830170   4.125384
    12  C    4.755189   5.433593   3.540063   4.106404   4.818290
    13  H    2.818782   3.955865   3.412277   4.449869   4.408479
    14  H    1.094793   2.395085   3.530322   4.323554   4.076661
    15  H    1.096375   2.345561   2.853588   3.458761   2.943273
    16  H    3.477815   3.314547   2.181723   1.094869   3.476331
    17  H    3.158404   3.085460   2.181165   1.094876   2.745218
    18  H    4.320879   4.565235   2.150001   1.095705   2.758986
    19  H    4.293636   5.377883   2.151519   2.755222   1.093343
    20  H    3.111684   4.181015   2.176976   2.746508   1.095945
    21  H    3.441096   4.994690   2.179410   3.476234   1.095602
    22  H    4.624323   6.222272   3.512691   4.949659   3.684514
    23  H    5.250440   6.604441   4.437386   5.679250   5.082798
    24  H    5.698092   7.006690   4.031664   5.147434   4.509117
    25  H    5.652516   6.329172   4.016779   4.471192   5.167386
    26  H    5.194554   5.882786   4.417871   5.075704   5.662153
    27  H    4.513860   4.827273   3.467368   3.657914   4.918569
    28  S    3.017769   2.139206   4.764450   4.798947   5.927245
    29  O    3.870131   2.990224   4.839346   4.651110   6.224128
    30  O    2.991450   2.955844   4.989389   5.452959   6.010987
    31  C    4.360984   3.038583   6.345780   6.180120   7.397530
    32  H    4.727143   3.095846   6.473542   6.048975   7.533932
    33  H    5.184692   4.014439   7.081640   6.962893   8.219522
    34  H    4.331749   3.171119   6.621751   6.581304   7.495580
                   11         12         13         14         15
    11  C    0.000000
    12  C    2.520826   0.000000
    13  H    2.987318   2.952231   0.000000
    14  H    4.952076   5.066445   2.558731   0.000000
    15  H    5.353886   5.584953   3.750591   1.776816   0.000000
    16  H    4.960110   3.677622   4.277992   4.422044   3.925746
    17  H    5.701246   5.086128   4.972438   4.250348   3.084764
    18  H    5.114022   4.452642   5.287959   5.351455   4.389617
    19  H    4.458695   5.135907   5.259031   5.149750   3.983974
    20  H    5.111376   5.673323   4.923760   3.983319   2.476837
    21  H    3.693584   4.936818   4.206183   4.012802   3.137835
    22  H    1.093577   3.478879   3.218306   4.727368   4.978100
    23  H    1.093570   2.750866   2.924646   5.181724   5.901581
    24  H    1.095797   2.766134   4.007037   5.948476   6.181924
    25  H    2.769370   1.095934   3.981988   6.048944   6.391499
    26  H    2.754795   1.094909   2.886609   5.288969   6.110966
    27  H    3.479543   1.096165   3.157837   4.925441   5.391374
    28  S    6.228216   5.063780   3.483705   2.915108   3.947203
    29  O    6.106743   4.399340   3.740553   3.994724   4.856480
    30  O    5.752379   5.057241   2.776794   2.386625   3.950365
    31  C    8.011982   6.802498   5.196910   4.178331   5.061904
    32  H    8.495149   7.117466   5.843611   4.774753   5.334600
    33  H    8.370728   7.037623   5.523899   4.891164   5.977955
    34  H    8.334201   7.418900   5.454131   4.004064   4.878009
                   16         17         18         19         20
    16  H    0.000000
    17  H    1.774469   0.000000
    18  H    1.783239   1.777110   0.000000
    19  H    3.769129   3.086609   2.546678   0.000000
    20  H    3.748777   2.521299   3.102350   1.775480   0.000000
    21  H    4.328839   3.755083   3.765832   1.777892   1.782619
    22  H    5.285250   5.691088   5.251097   4.075559   4.624734
    23  H    5.677117   6.527180   6.056757   5.506886   6.007465
    24  H    5.295152   6.104595   5.207021   4.583539   5.573445
    25  H    4.103556   5.532070   4.556114   5.262197   6.107899
    26  H    4.594452   5.994833   5.508489   6.071361   6.493895
    27  H    2.983957   4.579387   4.087504   5.268130   5.635487
    28  S    4.232531   4.776996   5.850379   6.817375   5.900252
    29  O    3.814193   4.851991   5.575025   6.959035   6.369504
    30  O    5.050215   5.528963   6.509936   6.990829   6.067712
    31  C    5.608723   5.930758   7.218891   8.295094   7.181615
    32  H    5.435076   5.707250   7.027680   8.351787   7.255684
    33  H    6.295998   6.825890   7.982813   9.111810   8.094794
    34  H    6.166071   6.222125   7.650663   8.455829   7.171776
                   21         22         23         24         25
    21  H    0.000000
    22  H    3.009166   0.000000
    23  H    4.591891   1.777053   0.000000
    24  H    4.157792   1.777996   1.780873   0.000000
    25  H    5.315558   3.776882   3.105078   2.562479   0.000000
    26  H    5.644504   3.757442   2.531206   3.109803   1.780066
    27  H    5.239335   4.326430   3.754605   3.775037   1.783774
    28  S    6.234982   6.492175   6.297742   7.097066   6.085520
    29  O    6.638991   6.597519   6.173906   6.824759   5.326173
    30  O    6.053469   5.922566   5.640210   6.738583   6.147160
    31  C    7.752955   8.235161   8.047863   8.891130   7.802254
    32  H    8.028689   8.744378   8.634425   9.302592   8.045032
    33  H    8.525068   8.682328   8.279581   9.245708   8.039003
    34  H    7.772197   8.424159   8.370882   9.274960   8.450397
                   26         27         28         29         30
    26  H    0.000000
    27  H    1.776331   0.000000
    28  S    5.140887   4.418759   0.000000
    29  O    4.481615   3.563524   1.477473   0.000000
    30  O    4.922805   4.703509   1.486437   2.562584   0.000000
    31  C    6.836168   6.082009   1.794499   2.652504   2.672667
    32  H    7.274211   6.282809   2.372701   2.864535   3.571808
    33  H    6.919594   6.328814   2.334560   2.841176   2.943534
    34  H    7.452722   6.792219   2.376880   3.562206   2.825791
                   31         32         33         34
    31  C    0.000000
    32  H    1.090600   0.000000
    33  H    1.093252   1.797380   0.000000
    34  H    1.091166   1.811798   1.806216   0.000000
 Stoichiometry    C10H18NO3S2(2)
 Framework group  C1[X(C10H18NO3S2)]
 Deg. of freedom    96
 Full point group                 C1      NOp   1
 Largest Abelian subgroup         C1      NOp   1
 Largest concise Abelian subgroup C1      NOp   1
                         Standard orientation:                         
 ---------------------------------------------------------------------
 Center     Atomic      Atomic             Coordinates (Angstroms)
 Number     Number       Type             X           Y           Z
 ---------------------------------------------------------------------
      1          8           0       -3.757840    0.197780    0.886256
      2          7           0       -2.608239    0.029651    0.385724
      3          6           0       -2.158672   -1.272917   -0.151188
      4          6           0       -0.880819   -0.853485   -0.816724
      5          6           0       -0.608115    0.446590   -0.657263
      6          6           0        0.599778    1.125434   -1.201827
      7         16           0        1.939506    1.445137    0.027052
      8          6           0       -1.694464    1.161552    0.117833
      9          6           0       -1.235541    1.762853    1.449920
     10          6           0       -2.430317    2.213552   -0.716276
     11          6           0       -3.208943   -1.817232   -1.122865
     12          6           0       -1.914204   -2.261333    0.993970
     13          1           0       -0.240116   -1.562014   -1.334990
     14          1           0        1.055719    0.539642   -2.006524
     15          1           0        0.380117    2.128386   -1.586371
     16          1           0       -0.664250    1.036358    2.036922
     17          1           0       -0.607046    2.645021    1.290149
     18          1           0       -2.119898    2.066304    2.021234
     19          1           0       -3.322389    2.537764   -0.173602
     20          1           0       -1.793980    3.088848   -0.889566
     21          1           0       -2.739291    1.803147   -1.683977
     22          1           0       -3.367814   -1.127038   -1.956113
     23          1           0       -2.890744   -2.783462   -1.524167
     24          1           0       -4.158650   -1.949339   -0.592416
     25          1           0       -2.842439   -2.408214    1.557775
     26          1           0       -1.586838   -3.228699    0.599179
     27          1           0       -1.140514   -1.886938    1.674270
     28         16           0        2.759946   -0.529012    0.103320
     29          8           0        2.342310   -1.207225    1.347720
     30          8           0        2.507260   -1.178958   -1.209393
     31          6           0        4.511058   -0.159974    0.236157
     32          1           0        4.661955    0.458243    1.121846
     33          1           0        5.002127   -1.129848    0.351897
     34          1           0        4.828083    0.343275   -0.678653
 ---------------------------------------------------------------------
 Rotational constants (GHZ):           0.7795382           0.2770387           0.2423266
 Leave Link  202 at Mon Jun 17 21:25:18 2019, MaxMem=  8053063680 cpu:               0.0 elap:               0.0
 (Enter /data2/g16/g16/l301.exe)
 General basis read from cards:  (6D, 7F)
 Centers:      13     14     15     16     17     18     19     20     21     22
 Centers:      23     24     25     26     27     32     33     34
 6-31G
 S 1 1.00 0.000000000000
     Exponent=  4.0000000000D-01 Coefficients=  1.0000000000D+00
 P 1 1.00 0.000000000000
     Exponent=  7.5000000000D-01 Coefficients=  1.0000000000D+00
 ****
 Centers:       3      4      5      6      8      9     10     11     12     31
 6-31G
 S 1 1.00 0.000000000000
     Exponent=  8.7000000000D+00 Coefficients=  1.0000000000D+00
 P 1 1.00 0.000000000000
     Exponent=  5.0000000000D-02 Coefficients=  1.0000000000D+00
 D 1 1.00
     Exponent=  8.2000000000D-01 Coefficients=  1.0000000000D+00
 ****
 Centers:       2
 6-31G
 S 1 1.00 0.000000000000
     Exponent=  1.3700000000D+01 Coefficients=  1.0000000000D+00
 P 1 1.00 0.000000000000
     Exponent=  5.3000000000D-02 Coefficients=  1.0000000000D+00
 D 1 1.00 0.000000000000
     Exponent=  1.0150000000D+00 Coefficients=  1.0000000000D+00
 ****
 Centers:       1     29     30
 6-31G
 S 1 1.00
     Exponent=  1.6000000000D+01 Coefficients=  1.0000000000D+00
 P 1 1.00 0.000000000000
     Exponent=  6.5000000000D-02 Coefficients=  1.0000000000D+00
 D 1 1.00 0.000000000000
     Exponent=  1.1900000000D+00 Coefficients=  1.0000000000D+00
 D 1 1.00 0.000000000000
     Exponent=  1.8000000000D-01 Coefficients=  1.0000000000D+00
 ****
 Centers:       7     28
 6-31G
 S 1 1.00 0.000000000000
     Exponent=  7.5000000000D+00 Coefficients=  1.0000000000D+00
 P 1 1.00 0.000000000000
     Exponent=  4.1000000000D-02 Coefficients=  1.0000000000D+00
 D 1 1.00 0.000000000000
     Exponent=  4.7900000000D-01 Coefficients=  1.0000000000D+00
 ****
 Ernie: Thresh=  0.10000D-02 Tol=  0.10000D-05 Strict=F.
 There are   438 symmetry adapted cartesian basis functions of A   symmetry.
 There are   438 symmetry adapted basis functions of A   symmetry.
   438 basis functions,   722 primitive gaussians,   438 cartesian basis functions
    71 alpha electrons       70 beta electrons
       nuclear repulsion energy      1520.8030235727 Hartrees.
 IExCor= 1009 DFT=T Ex+Corr=PBE1PBE ExCW=0 ScaHFX=  0.250000
 ScaDFX=  0.750000  0.750000  1.000000  1.000000 ScalE2=  1.000000  1.000000
 IRadAn=      5 IRanWt=     -1 IRanGd=            0 ICorTp=0 IEmpDi=  4
 NAtoms=   34 NActive=   34 NUniq=   34 SFac= 1.00D+00 NAtFMM=   60 NAOKFM=F Big=F
 Integral buffers will be    131072 words long.
 Raffenetti 2 integral format.
 Two-electron integral symmetry is turned on.
 Leave Link  301 at Mon Jun 17 21:25:18 2019, MaxMem=  8053063680 cpu:               0.0 elap:               0.1
 (Enter /data2/g16/g16/l302.exe)
 NPDir=0 NMtPBC=     1 NCelOv=     1 NCel=       1 NClECP=     1 NCelD=      1
         NCelK=      1 NCelE2=     1 NClLst=     1 CellRange=     0.0.
 One-electron integrals computed using PRISM.
 One-electron integral symmetry used in STVInt
 NBasis=   438 RedAO= T EigKep=  6.46D-05  NBF=   438
 NBsUse=   438 1.00D-06 EigRej= -1.00D+00 NBFU=   438
 Precomputing XC quadrature grid using
 IXCGrd= 4 IRadAn=           5 IRanWt=          -1 IRanGd=           0 AccXCQ= 0.00D+00.
 Generated NRdTot=       0 NPtTot=           0 NUsed=           0 NTot=          32
 NSgBfM=   433   433   433   433   433 MxSgAt=    34 MxSgA2=    34.
 Leave Link  302 at Mon Jun 17 21:25:18 2019, MaxMem=  8053063680 cpu:               0.0 elap:               0.4
 (Enter /data2/g16/g16/l303.exe)
 DipDrv:  MaxL=1.
 Leave Link  303 at Mon Jun 17 21:25:18 2019, MaxMem=  8053063680 cpu:               0.0 elap:               0.1
 (Enter /data2/g16/g16/l401.exe)
 ExpMin= 4.10D-02 ExpMax= 2.19D+04 ExpMxC= 3.30D+03 IAcc=3 IRadAn=         5 AccDes= 0.00D+00
 Harris functional with IExCor= 1009 and IRadAn=       5 diagonalized for initial guess.
 HarFok:  IExCor= 1009 AccDes= 0.00D+00 IRadAn=         5 IDoV= 1 UseB2=F ITyADJ=14
 ICtDFT=  3500011 ScaDFX=  1.000000  1.000000  1.000000  1.000000
 FoFCou: FMM=F IPFlag=           0 FMFlag=      100000 FMFlg1=           0
         NFxFlg=           0 DoJE=T BraDBF=F KetDBF=T FulRan=T
         wScrn=  0.000000 ICntrl=       500 IOpCl=  0 I1Cent=   200000004 NGrid=           0
         NMat0=    1 NMatS0=      1 NMatT0=    0 NMatD0=    1 NMtDS0=    0 NMtDT0=    0
 Petite list used in FoFCou.
 Harris En= -1467.69857454232    
 JPrj=0 DoOrth=F DoCkMO=F.
 Initial guess <Sx>= 0.0000 <Sy>= 0.0000 <Sz>= 0.5000 <S**2>= 0.7500 S= 0.5000
 Leave Link  401 at Mon Jun 17 21:25:20 2019, MaxMem=  8053063680 cpu:               0.0 elap:               1.5
 (Enter /data2/g16/g16/l502.exe)
 Integral symmetry usage will be decided dynamically.
 UHF open shell SCF:
 Using DIIS extrapolation, IDIIS=  1040.
 NGot=  8053063680 LenX=  8052670277 LenY=  8052477992
 Requested convergence on RMS density matrix=1.00D-08 within 128 cycles.
 Requested convergence on MAX density matrix=1.00D-06.
 Requested convergence on             energy=1.00D-06.
 No special actions if energy rises.
 Fock matrices will be formed incrementally for  20 cycles.

 Cycle   1  Pass 1  IDiag  1:
 FoFJK:  IHMeth= 1 ICntrl=       0 DoSepK=F KAlg= 0 I1Cent=           0 FoldK=F
 IRaf= 840000000 NMat=       1 IRICut=       1 DoRegI=T DoRafI=F ISym2E= 0 IDoP0=0 IntGTp=1.
 FoFCou: FMM=F IPFlag=           0 FMFlag=      100000 FMFlg1=           0
         NFxFlg=           0 DoJE=F BraDBF=F KetDBF=F FulRan=T
         wScrn=  0.000000 ICntrl=         0 IOpCl=  1 I1Cent=           0 NGrid=           0
         NMat0=    1 NMatS0=      1 NMatT0=    0 NMatD0=    1 NMtDS0=    0 NMtDT0=    0
 Symmetry not used in FoFCou.
 E= -1466.93547554235    
 DIIS: error= 2.53D-02 at cycle   1 NSaved=   1.
 NSaved= 1 IEnMin= 1 EnMin= -1466.93547554235     IErMin= 1 ErrMin= 2.53D-02
 ErrMax= 2.53D-02  0.00D+00 EMaxC= 1.00D-01 BMatC= 2.97D+00 BMatP= 2.97D+00
 IDIUse=3 WtCom= 7.47D-01 WtEn= 2.53D-01
 Coeff-Com:  0.100D+01
 Coeff-En:   0.100D+01
 Coeff:      0.100D+01
 Gap=     0.224 Goal=   None    Shift=    0.000
 Gap=     0.365 Goal=   None    Shift=    0.000
 GapD=    0.224 DampG=1.000 DampE=0.500 DampFc=0.5000 IDamp=-1.
 Damping current iteration by 5.00D-01
 RMSDP=4.75D-03 MaxDP=4.12D-01              OVMax= 2.97D-01

 Cycle   2  Pass 1  IDiag  1:
 RMSU=  2.37D-03    CP:  9.92D-01
 E= -1467.06154071476     Delta-E=       -0.126065172404 Rises=F Damp=T
 DIIS: error= 1.02D-02 at cycle   2 NSaved=   2.
 NSaved= 2 IEnMin= 2 EnMin= -1467.06154071476     IErMin= 2 ErrMin= 1.02D-02
 ErrMax= 1.02D-02  0.00D+00 EMaxC= 1.00D-01 BMatC= 5.24D-01 BMatP= 2.97D+00
 IDIUse=3 WtCom= 8.98D-01 WtEn= 1.02D-01
 Coeff-Com:  0.227D+00 0.773D+00
 Coeff-En:   0.396D+00 0.604D+00
 Coeff:      0.244D+00 0.756D+00
 Gap=     0.127 Goal=   None    Shift=    0.000
 Gap=     0.185 Goal=   None    Shift=    0.000
 RMSDP=1.67D-03 MaxDP=1.19D-01 DE=-1.26D-01 OVMax= 2.85D-01

 Cycle   3  Pass 1  IDiag  1:
 RMSU=  1.39D-03    CP:  9.82D-01  6.10D-01
 E= -1467.46585723436     Delta-E=       -0.404316519604 Rises=F Damp=F
 DIIS: error= 7.86D-03 at cycle   3 NSaved=   3.
 NSaved= 3 IEnMin= 3 EnMin= -1467.46585723436     IErMin= 3 ErrMin= 7.86D-03
 ErrMax= 7.86D-03  0.00D+00 EMaxC= 1.00D-01 BMatC= 3.57D-01 BMatP= 5.24D-01
 IDIUse=3 WtCom= 9.21D-01 WtEn= 7.86D-02
 Coeff-Com:  0.532D-01 0.446D+00 0.501D+00
 Coeff-En:   0.000D+00 0.000D+00 0.100D+01
 Coeff:      0.490D-01 0.411D+00 0.540D+00
 Gap=     0.145 Goal=   None    Shift=    0.000
 Gap=     0.223 Goal=   None    Shift=    0.000
 RMSDP=9.26D-04 MaxDP=6.38D-02 DE=-4.04D-01 OVMax= 1.08D-01

 Cycle   4  Pass 1  IDiag  1:
 RMSU=  6.18D-04    CP:  9.87D-01  7.32D-01  5.51D-01
 E= -1467.53901424639     Delta-E=       -0.073157012032 Rises=F Damp=F
 DIIS: error= 2.27D-03 at cycle   4 NSaved=   4.
 NSaved= 4 IEnMin= 4 EnMin= -1467.53901424639     IErMin= 4 ErrMin= 2.27D-03
 ErrMax= 2.27D-03  0.00D+00 EMaxC= 1.00D-01 BMatC= 4.07D-02 BMatP= 3.57D-01
 IDIUse=3 WtCom= 9.77D-01 WtEn= 2.27D-02
 Coeff-Com: -0.135D-01 0.701D-01 0.273D+00 0.671D+00
 Coeff-En:   0.000D+00 0.000D+00 0.820D-01 0.918D+00
 Coeff:     -0.132D-01 0.685D-01 0.269D+00 0.676D+00
 Gap=     0.144 Goal=   None    Shift=    0.000
 Gap=     0.202 Goal=   None    Shift=    0.000
 RMSDP=3.07D-04 MaxDP=1.69D-02 DE=-7.32D-02 OVMax= 3.09D-02

 Cycle   5  Pass 1  IDiag  1:
 RMSU=  2.03D-04    CP:  9.86D-01  7.22D-01  6.55D-01  7.14D-01
 E= -1467.54749330388     Delta-E=       -0.008479057493 Rises=F Damp=F
 DIIS: error= 8.79D-04 at cycle   5 NSaved=   5.
 NSaved= 5 IEnMin= 5 EnMin= -1467.54749330388     IErMin= 5 ErrMin= 8.79D-04
 ErrMax= 8.79D-04  0.00D+00 EMaxC= 1.00D-01 BMatC= 3.98D-03 BMatP= 4.07D-02
 IDIUse=3 WtCom= 9.91D-01 WtEn= 8.79D-03
 Coeff-Com: -0.964D-02 0.173D-01 0.124D+00 0.377D+00 0.492D+00
 Coeff-En:   0.000D+00 0.000D+00 0.000D+00 0.000D+00 0.100D+01
 Coeff:     -0.955D-02 0.171D-01 0.123D+00 0.373D+00 0.496D+00
 Gap=     0.144 Goal=   None    Shift=    0.000
 Gap=     0.205 Goal=   None    Shift=    0.000
 RMSDP=1.10D-04 MaxDP=5.35D-03 DE=-8.48D-03 OVMax= 1.26D-02

 Cycle   6  Pass 1  IDiag  1:
 RMSU=  6.98D-05    CP:  9.85D-01  7.25D-01  6.52D-01  7.70D-01  6.25D-01
 E= -1467.54835743384     Delta-E=       -0.000864129956 Rises=F Damp=F
 DIIS: error= 2.39D-04 at cycle   6 NSaved=   6.
 NSaved= 6 IEnMin= 6 EnMin= -1467.54835743384     IErMin= 6 ErrMin= 2.39D-04
 ErrMax= 2.39D-04  0.00D+00 EMaxC= 1.00D-01 BMatC= 4.05D-04 BMatP= 3.98D-03
 IDIUse=3 WtCom= 9.98D-01 WtEn= 2.39D-03
 Coeff-Com: -0.323D-02 0.191D-02 0.345D-01 0.118D+00 0.273D+00 0.576D+00
 Coeff-En:   0.000D+00 0.000D+00 0.000D+00 0.000D+00 0.437D-01 0.956D+00
 Coeff:     -0.322D-02 0.191D-02 0.344D-01 0.118D+00 0.272D+00 0.577D+00
 Gap=     0.146 Goal=   None    Shift=    0.000
 Gap=     0.205 Goal=   None    Shift=    0.000
 RMSDP=3.59D-05 MaxDP=2.48D-03 DE=-8.64D-04 OVMax= 5.19D-03

 Cycle   7  Pass 1  IDiag  1:
 RMSU=  2.54D-05    CP:  9.85D-01  7.22D-01  6.57D-01  7.72D-01  6.69D-01
                    CP:  6.98D-01
 E= -1467.54845134269     Delta-E=       -0.000093908846 Rises=F Damp=F
 DIIS: error= 1.17D-04 at cycle   7 NSaved=   7.
 NSaved= 7 IEnMin= 7 EnMin= -1467.54845134269     IErMin= 7 ErrMin= 1.17D-04
 ErrMax= 1.17D-04  0.00D+00 EMaxC= 1.00D-01 BMatC= 6.65D-05 BMatP= 4.05D-04
 IDIUse=3 WtCom= 9.99D-01 WtEn= 1.17D-03
 Coeff-Com: -0.684D-04-0.236D-02-0.266D-02-0.419D-05 0.598D-01 0.329D+00
 Coeff-Com:  0.617D+00
 Coeff-En:   0.000D+00 0.000D+00 0.000D+00 0.000D+00 0.000D+00 0.699D-01
 Coeff-En:   0.930D+00
 Coeff:     -0.683D-04-0.236D-02-0.266D-02-0.418D-05 0.597D-01 0.328D+00
 Coeff:      0.617D+00
 Gap=     0.147 Goal=   None    Shift=    0.000
 Gap=     0.206 Goal=   None    Shift=    0.000
 RMSDP=1.50D-05 MaxDP=9.75D-04 DE=-9.39D-05 OVMax= 1.16D-03

 Cycle   8  Pass 1  IDiag  1:
 RMSU=  1.04D-05    CP:  9.85D-01  7.22D-01  6.57D-01  7.72D-01  7.02D-01
                    CP:  7.93D-01  7.97D-01
 E= -1467.54846748050     Delta-E=       -0.000016137811 Rises=F Damp=F
 DIIS: error= 3.31D-05 at cycle   8 NSaved=   8.
 NSaved= 8 IEnMin= 8 EnMin= -1467.54846748050     IErMin= 8 ErrMin= 3.31D-05
 ErrMax= 3.31D-05  0.00D+00 EMaxC= 1.00D-01 BMatC= 5.05D-06 BMatP= 6.65D-05
 IDIUse=1 WtCom= 1.00D+00 WtEn= 0.00D+00
 Coeff-Com:  0.452D-03-0.123D-02-0.526D-02-0.148D-01-0.153D-01 0.688D-01
 Coeff-Com:  0.224D+00 0.743D+00
 Coeff:      0.452D-03-0.123D-02-0.526D-02-0.148D-01-0.153D-01 0.688D-01
 Coeff:      0.224D+00 0.743D+00
 Gap=     0.146 Goal=   None    Shift=    0.000
 Gap=     0.205 Goal=   None    Shift=    0.000
 RMSDP=5.13D-06 MaxDP=6.16D-04 DE=-1.61D-05 OVMax= 1.18D-03

 Cycle   9  Pass 1  IDiag  1:
 RMSU=  4.24D-06    CP:  9.85D-01  7.22D-01  6.57D-01  7.74D-01  7.01D-01
                    CP:  8.23D-01  8.39D-01  9.08D-01
 E= -1467.54846893423     Delta-E=       -0.000001453729 Rises=F Damp=F
 DIIS: error= 2.23D-05 at cycle   9 NSaved=   9.
 NSaved= 9 IEnMin= 9 EnMin= -1467.54846893423     IErMin= 9 ErrMin= 2.23D-05
 ErrMax= 2.23D-05  0.00D+00 EMaxC= 1.00D-01 BMatC= 3.12D-06 BMatP= 5.05D-06
 IDIUse=1 WtCom= 1.00D+00 WtEn= 0.00D+00
 Coeff-Com:  0.357D-03-0.414D-03-0.288D-02-0.992D-02-0.256D-01-0.257D-01
 Coeff-Com: -0.364D-02 0.488D+00 0.580D+00
 Coeff:      0.357D-03-0.414D-03-0.288D-02-0.992D-02-0.256D-01-0.257D-01
 Coeff:     -0.364D-02 0.488D+00 0.580D+00
 Gap=     0.147 Goal=   None    Shift=    0.000
 Gap=     0.206 Goal=   None    Shift=    0.000
 RMSDP=3.30D-06 MaxDP=2.38D-04 DE=-1.45D-06 OVMax= 2.78D-04

 Cycle  10  Pass 1  IDiag  1:
 RMSU=  2.30D-06    CP:  9.85D-01  7.22D-01  6.57D-01  7.73D-01  7.05D-01
                    CP:  8.39D-01  8.78D-01  1.04D+00  8.54D-01
 E= -1467.54846963482     Delta-E=       -0.000000700592 Rises=F Damp=F
 DIIS: error= 9.34D-06 at cycle  10 NSaved=  10.
 NSaved=10 IEnMin=10 EnMin= -1467.54846963482     IErMin=10 ErrMin= 9.34D-06
 ErrMax= 9.34D-06  0.00D+00 EMaxC= 1.00D-01 BMatC= 5.52D-07 BMatP= 3.12D-06
 IDIUse=1 WtCom= 1.00D+00 WtEn= 0.00D+00
 Coeff-Com:  0.113D-03 0.671D-04-0.167D-03-0.176D-02-0.121D-01-0.318D-01
 Coeff-Com: -0.697D-01 0.110D+00 0.346D+00 0.660D+00
 Coeff:      0.113D-03 0.671D-04-0.167D-03-0.176D-02-0.121D-01-0.318D-01
 Coeff:     -0.697D-01 0.110D+00 0.346D+00 0.660D+00
 Gap=     0.147 Goal=   None    Shift=    0.000
 Gap=     0.206 Goal=   None    Shift=    0.000
 RMSDP=1.60D-06 MaxDP=1.29D-04 DE=-7.01D-07 OVMax= 2.74D-04

 Cycle  11  Pass 1  IDiag  1:
 RMSU=  9.50D-07    CP:  9.85D-01  7.22D-01  6.57D-01  7.73D-01  7.06D-01
                    CP:  8.46D-01  8.86D-01  1.13D+00  9.84D-01  8.67D-01
 E= -1467.54846979387     Delta-E=       -0.000000159050 Rises=F Damp=F
 DIIS: error= 5.54D-06 at cycle  11 NSaved=  11.
 NSaved=11 IEnMin=11 EnMin= -1467.54846979387     IErMin=11 ErrMin= 5.54D-06
 ErrMax= 5.54D-06  0.00D+00 EMaxC= 1.00D-01 BMatC= 1.04D-07 BMatP= 5.52D-07
 IDIUse=1 WtCom= 1.00D+00 WtEn= 0.00D+00
 Coeff-Com:  0.352D-05 0.819D-04 0.432D-03 0.836D-03-0.220D-02-0.107D-01
 Coeff-Com: -0.368D-01-0.202D-01 0.682D-01 0.358D+00 0.643D+00
 Coeff:      0.352D-05 0.819D-04 0.432D-03 0.836D-03-0.220D-02-0.107D-01
 Coeff:     -0.368D-01-0.202D-01 0.682D-01 0.358D+00 0.643D+00
 Gap=     0.147 Goal=   None    Shift=    0.000
 Gap=     0.206 Goal=   None    Shift=    0.000
 RMSDP=6.18D-07 MaxDP=6.09D-05 DE=-1.59D-07 OVMax= 1.22D-04

 Cycle  12  Pass 1  IDiag  1:
 RMSU=  4.33D-07    CP:  9.85D-01  7.22D-01  6.57D-01  7.73D-01  7.05D-01
                    CP:  8.47D-01  8.83D-01  1.15D+00  1.03D+00  9.81D-01
                    CP:  8.27D-01
 E= -1467.54846981991     Delta-E=       -0.000000026038 Rises=F Damp=F
 DIIS: error= 3.28D-06 at cycle  12 NSaved=  12.
 NSaved=12 IEnMin=12 EnMin= -1467.54846981991     IErMin=12 ErrMin= 3.28D-06
 ErrMax= 3.28D-06  0.00D+00 EMaxC= 1.00D-01 BMatC= 2.73D-08 BMatP= 1.04D-07
 IDIUse=1 WtCom= 1.00D+00 WtEn= 0.00D+00
 Coeff-Com: -0.139D-04 0.296D-04 0.300D-03 0.815D-03 0.599D-03-0.135D-02
 Coeff-Com: -0.124D-01-0.342D-01-0.270D-01 0.106D+00 0.402D+00 0.566D+00
 Coeff:     -0.139D-04 0.296D-04 0.300D-03 0.815D-03 0.599D-03-0.135D-02
 Coeff:     -0.124D-01-0.342D-01-0.270D-01 0.106D+00 0.402D+00 0.566D+00
 Gap=     0.147 Goal=   None    Shift=    0.000
 Gap=     0.206 Goal=   None    Shift=    0.000
 RMSDP=3.28D-07 MaxDP=2.28D-05 DE=-2.60D-08 OVMax= 2.84D-05

 Cycle  13  Pass 1  IDiag  1:
 RMSU=  2.06D-07    CP:  9.85D-01  7.22D-01  6.57D-01  7.73D-01  7.05D-01
                    CP:  8.49D-01  8.85D-01  1.15D+00  1.06D+00  1.05D+00
                    CP:  9.49D-01  8.38D-01
 E= -1467.54846982584     Delta-E=       -0.000000005931 Rises=F Damp=F
 DIIS: error= 1.04D-06 at cycle  13 NSaved=  13.
 NSaved=13 IEnMin=13 EnMin= -1467.54846982584     IErMin=13 ErrMin= 1.04D-06
 ErrMax= 1.04D-06  0.00D+00 EMaxC= 1.00D-01 BMatC= 4.04D-09 BMatP= 2.73D-08
 IDIUse=1 WtCom= 1.00D+00 WtEn= 0.00D+00
 Coeff-Com: -0.490D-05-0.774D-05 0.577D-04 0.213D-03 0.880D-03 0.268D-02
 Coeff-Com:  0.349D-02-0.964D-02-0.332D-01-0.336D-01 0.596D-01 0.308D+00
 Coeff-Com:  0.702D+00
 Coeff:     -0.490D-05-0.774D-05 0.577D-04 0.213D-03 0.880D-03 0.268D-02
 Coeff:      0.349D-02-0.964D-02-0.332D-01-0.336D-01 0.596D-01 0.308D+00
 Coeff:      0.702D+00
 Gap=     0.147 Goal=   None    Shift=    0.000
 Gap=     0.206 Goal=   None    Shift=    0.000
 RMSDP=1.27D-07 MaxDP=1.31D-05 DE=-5.93D-09 OVMax= 2.15D-05

 Cycle  14  Pass 1  IDiag  1:
 RMSU=  1.05D-07    CP:  9.85D-01  7.22D-01  6.57D-01  7.73D-01  7.05D-01
                    CP:  8.49D-01  8.84D-01  1.15D+00  1.06D+00  1.06D+00
                    CP:  9.81D-01  8.59D-01  8.25D-01
 E= -1467.54846982692     Delta-E=       -0.000000001085 Rises=F Damp=F
 DIIS: error= 5.57D-07 at cycle  14 NSaved=  14.
 NSaved=14 IEnMin=14 EnMin= -1467.54846982692     IErMin=14 ErrMin= 5.57D-07
 ErrMax= 5.57D-07  0.00D+00 EMaxC= 1.00D-01 BMatC= 8.67D-10 BMatP= 4.04D-09
 IDIUse=1 WtCom= 1.00D+00 WtEn= 0.00D+00
 Coeff-Com:  0.247D-06-0.113D-04-0.275D-04-0.437D-04 0.332D-03 0.162D-02
 Coeff-Com:  0.398D-02 0.170D-02-0.124D-01-0.388D-01-0.526D-01 0.236D-01
 Coeff-Com:  0.375D+00 0.698D+00
 Coeff:      0.247D-06-0.113D-04-0.275D-04-0.437D-04 0.332D-03 0.162D-02
 Coeff:      0.398D-02 0.170D-02-0.124D-01-0.388D-01-0.526D-01 0.236D-01
 Coeff:      0.375D+00 0.698D+00
 Gap=     0.147 Goal=   None    Shift=    0.000
 Gap=     0.206 Goal=   None    Shift=    0.000
 RMSDP=7.22D-08 MaxDP=4.76D-06 DE=-1.09D-09 OVMax= 5.99D-06

 Cycle  15  Pass 1  IDiag  1:
 RMSU=  3.46D-08    CP:  9.85D-01  7.22D-01  6.57D-01  7.73D-01  7.05D-01
                    CP:  8.49D-01  8.84D-01  1.15D+00  1.06D+00  1.07D+00
                    CP:  1.00D+00  9.47D-01  9.46D-01  8.12D-01
 E= -1467.54846982737     Delta-E=       -0.000000000447 Rises=F Damp=F
 DIIS: error= 1.35D-07 at cycle  15 NSaved=  15.
 NSaved=15 IEnMin=15 EnMin= -1467.54846982737     IErMin=15 ErrMin= 1.35D-07
 ErrMax= 1.35D-07  0.00D+00 EMaxC= 1.00D-01 BMatC= 5.89D-11 BMatP= 8.67D-10
 IDIUse=1 WtCom= 1.00D+00 WtEn= 0.00D+00
 Coeff-Com:  0.801D-06-0.233D-05-0.196D-04-0.490D-04-0.122D-04 0.210D-03
 Coeff-Com:  0.867D-03 0.216D-02 0.388D-03-0.808D-02-0.264D-01-0.404D-01
 Coeff-Com:  0.409D-01 0.224D+00 0.807D+00
 Coeff:      0.801D-06-0.233D-05-0.196D-04-0.490D-04-0.122D-04 0.210D-03
 Coeff:      0.867D-03 0.216D-02 0.388D-03-0.808D-02-0.264D-01-0.404D-01
 Coeff:      0.409D-01 0.224D+00 0.807D+00
 Gap=     0.147 Goal=   None    Shift=    0.000
 Gap=     0.206 Goal=   None    Shift=    0.000
 RMSDP=2.07D-08 MaxDP=1.23D-06 DE=-4.47D-10 OVMax= 2.18D-06

 Cycle  16  Pass 1  IDiag  1:
 RMSU=  1.43D-08    CP:  9.85D-01  7.22D-01  6.57D-01  7.73D-01  7.05D-01
                    CP:  8.49D-01  8.84D-01  1.15D+00  1.06D+00  1.07D+00
                    CP:  1.01D+00  9.49D-01  9.94D-01  8.92D-01  9.40D-01
 E= -1467.54846982743     Delta-E=       -0.000000000061 Rises=F Damp=F
 DIIS: error= 4.83D-08 at cycle  16 NSaved=  16.
 NSaved=16 IEnMin=16 EnMin= -1467.54846982743     IErMin=16 ErrMin= 4.83D-08
 ErrMax= 4.83D-08  0.00D+00 EMaxC= 1.00D-01 BMatC= 1.17D-11 BMatP= 5.89D-11
 IDIUse=1 WtCom= 1.00D+00 WtEn= 0.00D+00
 Coeff-Com:  0.140D-06 0.100D-05-0.364D-05-0.112D-04-0.547D-04-0.157D-03
 Coeff-Com: -0.266D-03 0.599D-03 0.190D-02 0.294D-02-0.247D-02-0.198D-01
 Coeff-Com: -0.376D-01-0.235D-01 0.318D+00 0.760D+00
 Coeff:      0.140D-06 0.100D-05-0.364D-05-0.112D-04-0.547D-04-0.157D-03
 Coeff:     -0.266D-03 0.599D-03 0.190D-02 0.294D-02-0.247D-02-0.198D-01
 Coeff:     -0.376D-01-0.235D-01 0.318D+00 0.760D+00
 Gap=     0.147 Goal=   None    Shift=    0.000
 Gap=     0.206 Goal=   None    Shift=    0.000
 RMSDP=8.86D-09 MaxDP=4.96D-07 DE=-6.09D-11 OVMax= 1.32D-06

 SCF Done:  E(UPBE1PBE) =  -1467.54846983     A.U. after   16 cycles
            NFock= 16  Conv=0.89D-08     -V/T= 2.0053
 <Sx>= 0.0000 <Sy>= 0.0000 <Sz>= 0.5000 <S**2>= 0.7550 S= 0.5025
 <L.S>=  0.00000000000    
 KE= 1.459880626792D+03 PE=-6.496993247146D+03 EE= 2.048761126954D+03
 Annihilation of the first spin contaminant:
 S**2 before annihilation     0.7550,   after     0.7500
 Leave Link  502 at Mon Jun 17 21:28:02 2019, MaxMem=  8053063680 cpu:               0.0 elap:             162.4
 (Enter /data2/g16/g16/l601.exe)
 Copying SCF densities to generalized density rwf, IOpCl= 1 IROHF=0.

 **********************************************************************

            Population analysis using the SCF Density.

 **********************************************************************

 Orbital symmetries:
 Alpha Orbitals:
       Occupied  (A) (A) (A) (A) (A) (A) (A) (A) (A) (A) (A) (A)
                 (A) (A) (A) (A) (A) (A) (A) (A) (A) (A) (A) (A)
                 (A) (A) (A) (A) (A) (A) (A) (A) (A) (A) (A) (A)
                 (A) (A) (A) (A) (A) (A) (A) (A) (A) (A) (A) (A)
                 (A) (A) (A) (A) (A) (A) (A) (A) (A) (A) (A) (A)
                 (A) (A) (A) (A) (A) (A) (A) (A) (A) (A) (A)
       Virtual   (A) (A) (A) (A) (A) (A) (A) (A) (A) (A) (A) (A)
                 (A) (A) (A) (A) (A) (A) (A) (A) (A) (A) (A) (A)
                 (A) (A) (A) (A) (A) (A) (A) (A) (A) (A) (A) (A)
                 (A) (A) (A) (A) (A) (A) (A) (A) (A) (A) (A) (A)
                 (A) (A) (A) (A) (A) (A) (A) (A) (A) (A) (A) (A)
                 (A) (A) (A) (A) (A) (A) (A) (A) (A) (A) (A) (A)
                 (A) (A) (A) (A) (A) (A) (A) (A) (A) (A) (A) (A)
                 (A) (A) (A) (A) (A) (A) (A) (A) (A) (A) (A) (A)
                 (A) (A) (A) (A) (A) (A) (A) (A) (A) (A) (A) (A)
                 (A) (A) (A) (A) (A) (A) (A) (A) (A) (A) (A) (A)
                 (A) (A) (A) (A) (A) (A) (A) (A) (A) (A) (A) (A)
                 (A) (A) (A) (A) (A) (A) (A) (A) (A) (A) (A) (A)
                 (A) (A) (A) (A) (A) (A) (A) (A) (A) (A) (A) (A)
                 (A) (A) (A) (A) (A) (A) (A) (A) (A) (A) (A) (A)
                 (A) (A) (A) (A) (A) (A) (A) (A) (A) (A) (A) (A)
                 (A) (A) (A) (A) (A) (A) (A) (A) (A) (A) (A) (A)
                 (A) (A) (A) (A) (A) (A) (A) (A) (A) (A) (A) (A)
                 (A) (A) (A) (A) (A) (A) (A) (A) (A) (A) (A) (A)
                 (A) (A) (A) (A) (A) (A) (A) (A) (A) (A) (A) (A)
                 (A) (A) (A) (A) (A) (A) (A) (A) (A) (A) (A) (A)
                 (A) (A) (A) (A) (A) (A) (A) (A) (A) (A) (A) (A)
                 (A) (A) (A) (A) (A) (A) (A) (A) (A) (A) (A) (A)
                 (A) (A) (A) (A) (A) (A) (A) (A) (A) (A) (A) (A)
                 (A) (A) (A) (A) (A) (A) (A) (A) (A) (A) (A) (A)
                 (A) (A) (A) (A) (A) (A) (A) (A) (A) (A) (A) (A)
                 (A) (A) (A) (A) (A) (A) (A) (A) (A) (A) (A) (A)
                 (A) (A) (A) (A) (A) (A) (A) (A) (A) (A) (A) (A)
                 (A) (A) (A) (A) (A) (A) (A) (A) (A) (A) (A) (A)
                 (A) (A) (A) (A) (A) (A) (A) (A) (A) (A) (A) (A)
                 (A) (A) (A) (A) (A) (A) (A) (A) (A) (A) (A) (A)
                 (A) (A) (A) (A) (A) (A) (A)
 Beta  Orbitals:
       Occupied  (A) (A) (A) (A) (A) (A) (A) (A) (A) (A) (A) (A)
                 (A) (A) (A) (A) (A) (A) (A) (A) (A) (A) (A) (A)
                 (A) (A) (A) (A) (A) (A) (A) (A) (A) (A) (A) (A)
                 (A) (A) (A) (A) (A) (A) (A) (A) (A) (A) (A) (A)
                 (A) (A) (A) (A) (A) (A) (A) (A) (A) (A) (A) (A)
                 (A) (A) (A) (A) (A) (A) (A) (A) (A) (A)
       Virtual   (A) (A) (A) (A) (A) (A) (A) (A) (A) (A) (A) (A)
                 (A) (A) (A) (A) (A) (A) (A) (A) (A) (A) (A) (A)
                 (A) (A) (A) (A) (A) (A) (A) (A) (A) (A) (A) (A)
                 (A) (A) (A) (A) (A) (A) (A) (A) (A) (A) (A) (A)
                 (A) (A) (A) (A) (A) (A) (A) (A) (A) (A) (A) (A)
                 (A) (A) (A) (A) (A) (A) (A) (A) (A) (A) (A) (A)
                 (A) (A) (A) (A) (A) (A) (A) (A) (A) (A) (A) (A)
                 (A) (A) (A) (A) (A) (A) (A) (A) (A) (A) (A) (A)
                 (A) (A) (A) (A) (A) (A) (A) (A) (A) (A) (A) (A)
                 (A) (A) (A) (A) (A) (A) (A) (A) (A) (A) (A) (A)
                 (A) (A) (A) (A) (A) (A) (A) (A) (A) (A) (A) (A)
                 (A) (A) (A) (A) (A) (A) (A) (A) (A) (A) (A) (A)
                 (A) (A) (A) (A) (A) (A) (A) (A) (A) (A) (A) (A)
                 (A) (A) (A) (A) (A) (A) (A) (A) (A) (A) (A) (A)
                 (A) (A) (A) (A) (A) (A) (A) (A) (A) (A) (A) (A)
                 (A) (A) (A) (A) (A) (A) (A) (A) (A) (A) (A) (A)
                 (A) (A) (A) (A) (A) (A) (A) (A) (A) (A) (A) (A)
                 (A) (A) (A) (A) (A) (A) (A) (A) (A) (A) (A) (A)
                 (A) (A) (A) (A) (A) (A) (A) (A) (A) (A) (A) (A)
                 (A) (A) (A) (A) (A) (A) (A) (A) (A) (A) (A) (A)
                 (A) (A) (A) (A) (A) (A) (A) (A) (A) (A) (A) (A)
                 (A) (A) (A) (A) (A) (A) (A) (A) (A) (A) (A) (A)
                 (A) (A) (A) (A) (A) (A) (A) (A) (A) (A) (A) (A)
                 (A) (A) (A) (A) (A) (A) (A) (A) (A) (A) (A) (A)
                 (A) (A) (A) (A) (A) (A) (A) (A) (A) (A) (A) (A)
                 (A) (A) (A) (A) (A) (A) (A) (A) (A) (A) (A) (A)
                 (A) (A) (A) (A) (A) (A) (A) (A) (A) (A) (A) (A)
                 (A) (A) (A) (A) (A) (A) (A) (A) (A) (A) (A) (A)
                 (A) (A) (A) (A) (A) (A) (A) (A) (A) (A) (A) (A)
                 (A) (A) (A) (A) (A) (A) (A) (A) (A) (A) (A) (A)
                 (A) (A) (A) (A) (A) (A) (A) (A)
 The electronic state is 2-A.
 Alpha  occ. eigenvalues --  -89.28822 -89.08213 -19.24730 -19.24259 -19.22617
 Alpha  occ. eigenvalues --  -14.48510 -10.29831 -10.29716 -10.29144 -10.28735
 Alpha  occ. eigenvalues --  -10.26172 -10.24907 -10.23179 -10.22736 -10.22653
 Alpha  occ. eigenvalues --  -10.22456  -8.22137  -8.04455  -6.15858  -6.15817
 Alpha  occ. eigenvalues --   -6.15702  -5.98298  -5.97918  -5.97197  -1.14667
 Alpha  occ. eigenvalues --   -1.13563  -1.04432  -0.93300  -0.85921  -0.84048
 Alpha  occ. eigenvalues --   -0.82279  -0.77268  -0.74915  -0.72049  -0.71216
 Alpha  occ. eigenvalues --   -0.70621  -0.64493  -0.62471  -0.59026  -0.56410
 Alpha  occ. eigenvalues --   -0.53122  -0.51822  -0.51303  -0.50769  -0.50222
 Alpha  occ. eigenvalues --   -0.48487  -0.47419  -0.46378  -0.46167  -0.45206
 Alpha  occ. eigenvalues --   -0.44656  -0.44022  -0.42716  -0.42392  -0.41628
 Alpha  occ. eigenvalues --   -0.40525  -0.40047  -0.39155  -0.38902  -0.36481
 Alpha  occ. eigenvalues --   -0.36398  -0.36129  -0.35735  -0.35646  -0.34599
 Alpha  occ. eigenvalues --   -0.33581  -0.31772  -0.28360  -0.27194  -0.26928
 Alpha  occ. eigenvalues --   -0.20085
 Alpha virt. eigenvalues --   -0.05430  -0.02502   0.00433   0.01049   0.02615
 Alpha virt. eigenvalues --    0.03427   0.03744   0.04538   0.04782   0.05004
 Alpha virt. eigenvalues --    0.05451   0.05831   0.06167   0.06281   0.06848
 Alpha virt. eigenvalues --    0.07845   0.08235   0.08325   0.09009   0.09240
 Alpha virt. eigenvalues --    0.09399   0.09737   0.10276   0.10839   0.10964
 Alpha virt. eigenvalues --    0.11367   0.11878   0.12573   0.13003   0.13686
 Alpha virt. eigenvalues --    0.14032   0.14327   0.14806   0.15132   0.15459
 Alpha virt. eigenvalues --    0.16011   0.16523   0.16582   0.17117   0.17643
 Alpha virt. eigenvalues --    0.18513   0.18752   0.19259   0.19484   0.19685
 Alpha virt. eigenvalues --    0.20041   0.20915   0.21327   0.21859   0.22427
 Alpha virt. eigenvalues --    0.23152   0.23487   0.24202   0.24335   0.25203
 Alpha virt. eigenvalues --    0.25936   0.26299   0.26593   0.27152   0.27625
 Alpha virt. eigenvalues --    0.28025   0.28582   0.28868   0.29353   0.29674
 Alpha virt. eigenvalues --    0.30269   0.30622   0.31410   0.31494   0.32016
 Alpha virt. eigenvalues --    0.32640   0.32951   0.33728   0.34290   0.34983
 Alpha virt. eigenvalues --    0.35612   0.36792   0.37797   0.37899   0.40595
 Alpha virt. eigenvalues --    0.41583   0.42116   0.42242   0.42967   0.44515
 Alpha virt. eigenvalues --    0.46187   0.47305   0.47573   0.48113   0.49934
 Alpha virt. eigenvalues --    0.50601   0.51185   0.51807   0.52088   0.52303
 Alpha virt. eigenvalues --    0.52981   0.53744   0.54368   0.55453   0.56172
 Alpha virt. eigenvalues --    0.56905   0.57460   0.58345   0.59831   0.60292
 Alpha virt. eigenvalues --    0.60568   0.61785   0.62523   0.63282   0.63941
 Alpha virt. eigenvalues --    0.64498   0.65011   0.65509   0.65688   0.66754
 Alpha virt. eigenvalues --    0.68117   0.68371   0.68577   0.70076   0.71011
 Alpha virt. eigenvalues --    0.72103   0.72648   0.72973   0.73341   0.74188
 Alpha virt. eigenvalues --    0.74906   0.75736   0.76467   0.77488   0.78529
 Alpha virt. eigenvalues --    0.78979   0.79633   0.80643   0.81806   0.82342
 Alpha virt. eigenvalues --    0.82829   0.83293   0.83896   0.84745   0.85505
 Alpha virt. eigenvalues --    0.86014   0.86979   0.88043   0.88675   0.88767
 Alpha virt. eigenvalues --    0.89062   0.89713   0.90345   0.91086   0.91799
 Alpha virt. eigenvalues --    0.92100   0.92860   0.94359   0.95017   0.95154
 Alpha virt. eigenvalues --    0.95900   0.97726   0.97795   0.98275   0.99124
 Alpha virt. eigenvalues --    1.00103   1.01534   1.02164   1.03359   1.04115
 Alpha virt. eigenvalues --    1.04845   1.07403   1.08594   1.09063   1.11347
 Alpha virt. eigenvalues --    1.12496   1.14320   1.14986   1.15772   1.17169
 Alpha virt. eigenvalues --    1.18608   1.20219   1.22160   1.22365   1.23600
 Alpha virt. eigenvalues --    1.25669   1.28803   1.30139   1.30691   1.32200
 Alpha virt. eigenvalues --    1.36115   1.37935   1.39548   1.40126   1.41379
 Alpha virt. eigenvalues --    1.44303   1.45204   1.45828   1.48009   1.48865
 Alpha virt. eigenvalues --    1.49963   1.50168   1.50739   1.52886   1.56050
 Alpha virt. eigenvalues --    1.57264   1.59377   1.62688   1.63085   1.63391
 Alpha virt. eigenvalues --    1.65407   1.65708   1.66686   1.68119   1.68535
 Alpha virt. eigenvalues --    1.69132   1.71493   1.72232   1.73116   1.74530
 Alpha virt. eigenvalues --    1.75260   1.76469   1.77889   1.78894   1.79417
 Alpha virt. eigenvalues --    1.79661   1.80113   1.80747   1.82133   1.82558
 Alpha virt. eigenvalues --    1.84002   1.85052   1.85372   1.86257   1.86427
 Alpha virt. eigenvalues --    1.87713   1.89465   1.92136   1.92364   1.93860
 Alpha virt. eigenvalues --    1.95146   1.95929   1.97926   1.98298   1.99387
 Alpha virt. eigenvalues --    1.99835   2.01614   2.03209   2.03913   2.05567
 Alpha virt. eigenvalues --    2.06569   2.07349   2.10191   2.11761   2.13541
 Alpha virt. eigenvalues --    2.14665   2.16163   2.16928   2.24760   2.25636
 Alpha virt. eigenvalues --    2.28053   2.28336   2.30867   2.33141   2.34464
 Alpha virt. eigenvalues --    2.36428   2.38735   2.39428   2.40259   2.40990
 Alpha virt. eigenvalues --    2.43032   2.44735   2.47200   2.48710   2.49617
 Alpha virt. eigenvalues --    2.53804   2.54332   2.55038   2.58055   2.58593
 Alpha virt. eigenvalues --    2.60650   2.63700   2.65219   2.66112   2.67526
 Alpha virt. eigenvalues --    2.70637   2.75586   2.75792   2.76843   2.80397
 Alpha virt. eigenvalues --    2.82526   2.82685   2.83163   2.83187   2.84128
 Alpha virt. eigenvalues --    2.84258   2.85309   2.86335   2.87013   2.87742
 Alpha virt. eigenvalues --    2.88294   2.89646   2.91256   2.93007   2.93574
 Alpha virt. eigenvalues --    2.94402   2.95691   2.96784   2.98003   2.98437
 Alpha virt. eigenvalues --    2.99256   3.02947   3.03639   3.03977   3.06514
 Alpha virt. eigenvalues --    3.08163   3.15635   3.18148   3.19426   3.20479
 Alpha virt. eigenvalues --    3.26185   3.28178   3.29502   3.31129   3.31799
 Alpha virt. eigenvalues --    3.34581   3.35599   3.37177   3.38447   3.40933
 Alpha virt. eigenvalues --    3.42177   3.43557   3.44893   3.47808   3.50135
 Alpha virt. eigenvalues --    3.53513   3.56991   3.60098   3.63467   3.64835
 Alpha virt. eigenvalues --    3.76859   3.94326   4.47075   4.57003   4.62137
 Alpha virt. eigenvalues --    4.64143   4.72286   4.73891   4.74616   4.86612
 Alpha virt. eigenvalues --    4.91298   5.03096   5.44594   5.81686   5.84364
 Alpha virt. eigenvalues --    6.08099  22.21311  22.63228  58.49130  58.49226
 Alpha virt. eigenvalues --   58.50358  58.50621  58.50856  58.55729  58.56177
 Alpha virt. eigenvalues --   58.56242  58.56498  58.56768  95.61927 106.32203
 Alpha virt. eigenvalues --  106.33231 106.39150
  Beta  occ. eigenvalues --  -89.28822 -89.08212 -19.24730 -19.24259 -19.21189
  Beta  occ. eigenvalues --  -14.47315 -10.29833 -10.29716 -10.29210 -10.28800
  Beta  occ. eigenvalues --  -10.26171 -10.24903 -10.23131 -10.22685 -10.22607
  Beta  occ. eigenvalues --  -10.22402  -8.22137  -8.04455  -6.15858  -6.15817
  Beta  occ. eigenvalues --   -6.15702  -5.98298  -5.97917  -5.97197  -1.14667
  Beta  occ. eigenvalues --   -1.10929  -1.04432  -0.92354  -0.85730  -0.83946
  Beta  occ. eigenvalues --   -0.82142  -0.77070  -0.73849  -0.71808  -0.71090
  Beta  occ. eigenvalues --   -0.70152  -0.64439  -0.62342  -0.58647  -0.55897
  Beta  occ. eigenvalues --   -0.53035  -0.51814  -0.51023  -0.50420  -0.48390
  Beta  occ. eigenvalues --   -0.47505  -0.47165  -0.46368  -0.46099  -0.44955
  Beta  occ. eigenvalues --   -0.44306  -0.43889  -0.42502  -0.41593  -0.41134
  Beta  occ. eigenvalues --   -0.40215  -0.40013  -0.38804  -0.37655  -0.36345
  Beta  occ. eigenvalues --   -0.36092  -0.35703  -0.35651  -0.34572  -0.33580
  Beta  occ. eigenvalues --   -0.32757  -0.31769  -0.28269  -0.26743  -0.26001
  Beta virt. eigenvalues --   -0.05432  -0.03738  -0.02455   0.00444   0.01054
  Beta virt. eigenvalues --    0.02635   0.03448   0.03783   0.04572   0.04871
  Beta virt. eigenvalues --    0.05039   0.05478   0.05876   0.06195   0.06311
  Beta virt. eigenvalues --    0.06921   0.07864   0.08276   0.08436   0.09039
  Beta virt. eigenvalues --    0.09332   0.09435   0.09812   0.10325   0.10901
  Beta virt. eigenvalues --    0.10978   0.11405   0.11971   0.12680   0.13096
  Beta virt. eigenvalues --    0.13742   0.14081   0.14377   0.14929   0.15232
  Beta virt. eigenvalues --    0.15698   0.16096   0.16590   0.16902   0.17293
  Beta virt. eigenvalues --    0.17751   0.18555   0.18899   0.19333   0.19762
  Beta virt. eigenvalues --    0.19809   0.20219   0.21012   0.21456   0.21952
  Beta virt. eigenvalues --    0.22526   0.23327   0.23532   0.24336   0.24710
  Beta virt. eigenvalues --    0.25384   0.26095   0.26377   0.26675   0.27197
  Beta virt. eigenvalues --    0.27690   0.28101   0.28738   0.29062   0.29423
  Beta virt. eigenvalues --    0.30045   0.30554   0.30743   0.31537   0.31849
  Beta virt. eigenvalues --    0.32094   0.32781   0.33191   0.33942   0.34351
  Beta virt. eigenvalues --    0.35071   0.35805   0.36823   0.37879   0.37981
  Beta virt. eigenvalues --    0.40623   0.41625   0.42208   0.42644   0.43088
  Beta virt. eigenvalues --    0.44680   0.46244   0.47387   0.47612   0.48170
  Beta virt. eigenvalues --    0.50108   0.50654   0.51397   0.51906   0.52206
  Beta virt. eigenvalues --    0.52370   0.53027   0.53966   0.54398   0.55510
  Beta virt. eigenvalues --    0.56257   0.56969   0.57534   0.58474   0.59995
  Beta virt. eigenvalues --    0.60406   0.60705   0.61836   0.62566   0.63457
  Beta virt. eigenvalues --    0.64013   0.64570   0.65089   0.65635   0.65963
  Beta virt. eigenvalues --    0.66830   0.68190   0.68567   0.68751   0.70282
  Beta virt. eigenvalues --    0.71273   0.72223   0.72756   0.73033   0.73423
  Beta virt. eigenvalues --    0.74391   0.74935   0.75864   0.76537   0.77530
  Beta virt. eigenvalues --    0.78761   0.79016   0.79848   0.80742   0.82004
  Beta virt. eigenvalues --    0.82466   0.82873   0.83356   0.84005   0.84827
  Beta virt. eigenvalues --    0.85552   0.86133   0.87082   0.88068   0.88744
  Beta virt. eigenvalues --    0.88808   0.89102   0.89765   0.90410   0.91151
  Beta virt. eigenvalues --    0.91873   0.92221   0.93142   0.94490   0.95105
  Beta virt. eigenvalues --    0.95237   0.96092   0.97783   0.98117   0.98941
  Beta virt. eigenvalues --    0.99582   1.00403   1.01833   1.02198   1.03461
  Beta virt. eigenvalues --    1.04221   1.04970   1.07462   1.08654   1.09410
  Beta virt. eigenvalues --    1.11674   1.12523   1.14389   1.15060   1.15891
  Beta virt. eigenvalues --    1.17412   1.18851   1.20685   1.22528   1.23062
  Beta virt. eigenvalues --    1.24275   1.26106   1.29213   1.30439   1.31719
  Beta virt. eigenvalues --    1.32456   1.36524   1.38221   1.39593   1.40188
  Beta virt. eigenvalues --    1.41465   1.44329   1.45402   1.46115   1.48325
  Beta virt. eigenvalues --    1.48918   1.50041   1.50216   1.50799   1.52925
  Beta virt. eigenvalues --    1.56233   1.57336   1.59502   1.62704   1.63105
  Beta virt. eigenvalues --    1.63405   1.65790   1.65908   1.67169   1.68227
  Beta virt. eigenvalues --    1.68556   1.69482   1.71604   1.72318   1.73220
  Beta virt. eigenvalues --    1.74604   1.75323   1.76548   1.77976   1.78948
  Beta virt. eigenvalues --    1.79465   1.79741   1.80197   1.80772   1.82208
  Beta virt. eigenvalues --    1.82681   1.84118   1.85095   1.85479   1.86412
  Beta virt. eigenvalues --    1.86550   1.87870   1.89566   1.92455   1.92567
  Beta virt. eigenvalues --    1.93907   1.95156   1.95947   1.98033   1.98473
  Beta virt. eigenvalues --    1.99715   2.00068   2.01989   2.03517   2.04082
  Beta virt. eigenvalues --    2.06157   2.06902   2.07551   2.10469   2.12427
  Beta virt. eigenvalues --    2.13643   2.14909   2.16211   2.17345   2.25466
  Beta virt. eigenvalues --    2.25918   2.28151   2.29506   2.30941   2.33214
  Beta virt. eigenvalues --    2.34624   2.36524   2.38738   2.39430   2.40379
  Beta virt. eigenvalues --    2.41373   2.43295   2.44832   2.47363   2.49235
  Beta virt. eigenvalues --    2.49749   2.53900   2.55216   2.55630   2.58485
  Beta virt. eigenvalues --    2.58735   2.60697   2.63751   2.65349   2.66164
  Beta virt. eigenvalues --    2.68440   2.70827   2.75711   2.76064   2.77136
  Beta virt. eigenvalues --    2.80596   2.82543   2.82735   2.83193   2.84024
  Beta virt. eigenvalues --    2.84201   2.85329   2.85986   2.86926   2.87040
  Beta virt. eigenvalues --    2.87920   2.89477   2.89881   2.91530   2.93066
  Beta virt. eigenvalues --    2.94533   2.94974   2.96297   2.96954   2.98159
  Beta virt. eigenvalues --    2.98502   2.99756   3.03137   3.04117   3.04486
  Beta virt. eigenvalues --    3.06615   3.08272   3.15967   3.19094   3.19586
  Beta virt. eigenvalues --    3.24112   3.26194   3.28181   3.29806   3.31165
  Beta virt. eigenvalues --    3.31912   3.34624   3.35609   3.37225   3.38473
  Beta virt. eigenvalues --    3.41008   3.42233   3.43712   3.44940   3.47907
  Beta virt. eigenvalues --    3.50273   3.53691   3.57017   3.60146   3.63574
  Beta virt. eigenvalues --    3.64861   3.76879   3.96028   4.47146   4.57063
  Beta virt. eigenvalues --    4.62137   4.64262   4.72363   4.73994   4.74720
  Beta virt. eigenvalues --    4.86739   4.91336   5.03098   5.46488   5.81699
  Beta virt. eigenvalues --    5.84366   6.10598  22.21312  22.63228  58.49128
  Beta virt. eigenvalues --   58.49226  58.50342  58.50581  58.50801  58.55772
  Beta virt. eigenvalues --   58.56223  58.56284  58.56546  58.56770  95.62860
  Beta virt. eigenvalues --  106.32205 106.33231 106.40287
          Condensed to atoms (all electrons):
               1          2          3          4          5          6
     1  O    8.669127  -0.016461  -0.089614  -0.001854   0.038455  -0.003619
     2  N   -0.016461   7.374376   0.082048  -0.058556  -0.022720   0.016343
     3  C   -0.089614   0.082048   5.449000   0.244986  -0.111374   0.018493
     4  C   -0.001854  -0.058556   0.244986   5.176931   0.614499  -0.031510
     5  C    0.038455  -0.022720  -0.111374   0.614499   5.423300   0.192265
     6  C   -0.003619   0.016343   0.018493  -0.031510   0.192265   5.225143
     7  S   -0.000778   0.005312   0.000036  -0.002818  -0.132806   0.258909
     8  C   -0.072420   0.054032  -0.137842  -0.065650   0.203865  -0.076708
     9  C   -0.010590  -0.089920   0.006797  -0.002344  -0.069958   0.010049
    10  C   -0.010886  -0.086400   0.018009  -0.011089  -0.073526   0.004351
    11  C   -0.007327  -0.106229   0.306566  -0.042446  -0.005364  -0.002638
    12  C   -0.001375  -0.090355   0.312183  -0.075554  -0.007658  -0.001459
    13  H   -0.000585   0.002698  -0.035248   0.405600  -0.049103  -0.001742
    14  H    0.000070  -0.002537   0.003613   0.024125  -0.084136   0.420377
    15  H    0.000107  -0.002543  -0.000339   0.004831  -0.063091   0.407649
    16  H   -0.001094   0.017904  -0.002959   0.003087  -0.001297  -0.000470
    17  H   -0.000677   0.005533  -0.000399   0.001146  -0.005588   0.002295
    18  H    0.007502  -0.022146   0.001227  -0.000913   0.008321  -0.001027
    19  H    0.008183  -0.027559  -0.001362  -0.001520   0.020466  -0.001455
    20  H   -0.000418   0.005510  -0.000715   0.001401  -0.004086   0.002608
    21  H   -0.000656   0.004049   0.000773   0.001059   0.000329   0.002981
    22  H   -0.000428   0.001816  -0.057618  -0.000160   0.008545  -0.000731
    23  H   -0.000376   0.005802  -0.047624   0.002837   0.001127  -0.000043
    24  H    0.006502  -0.024580  -0.032239   0.014879  -0.002569   0.000092
    25  H    0.008031  -0.029163  -0.027720   0.016109  -0.001019   0.000025
    26  H   -0.000900   0.010745  -0.048508  -0.001618  -0.000202  -0.000019
    27  H   -0.000546   0.014023  -0.061924  -0.005240   0.004319  -0.000608
    28  S   -0.000005  -0.002340   0.000782  -0.030457  -0.008376  -0.003993
    29  O    0.000024   0.006438  -0.005346   0.028378   0.013053   0.005104
    30  O    0.000101  -0.000096  -0.007468   0.025205   0.022184  -0.023986
    31  C    0.000002   0.000228  -0.000745   0.002768   0.004913  -0.000419
    32  H    0.000000  -0.000010   0.000031  -0.000095  -0.000506   0.000214
    33  H   -0.000000   0.000006   0.000013  -0.000027   0.000138   0.000180
    34  H    0.000000  -0.000003  -0.000020  -0.000438  -0.000027  -0.000401
               7          8          9         10         11         12
     1  O   -0.000778  -0.072420  -0.010590  -0.010886  -0.007327  -0.001375
     2  N    0.005312   0.054032  -0.089920  -0.086400  -0.106229  -0.090355
     3  C    0.000036  -0.137842   0.006797   0.018009   0.306566   0.312183
     4  C   -0.002818  -0.065650  -0.002344  -0.011089  -0.042446  -0.075554
     5  C   -0.132806   0.203865  -0.069958  -0.073526  -0.005364  -0.007658
     6  C    0.258909  -0.076708   0.010049   0.004351  -0.002638  -0.001459
     7  S   15.873628  -0.002097   0.002624  -0.000687  -0.000219   0.000959
     8  C   -0.002097   5.448271   0.326500   0.321885   0.014770   0.021912
     9  C    0.002624   0.326500   5.012162  -0.085063  -0.005253   0.004902
    10  C   -0.000687   0.321885  -0.085063   5.032437   0.005202  -0.006253
    11  C   -0.000219   0.014770  -0.005253   0.005202   5.030158  -0.080819
    12  C    0.000959   0.021912   0.004902  -0.006253  -0.080819   5.024068
    13  H    0.000010   0.012765  -0.000909  -0.001553  -0.001007   0.003154
    14  H   -0.041773   0.003051  -0.000012  -0.001844  -0.000194  -0.000047
    15  H   -0.042196   0.007949  -0.001066   0.005871   0.000304  -0.000059
    16  H    0.000571  -0.065474   0.412775   0.009211   0.000142  -0.001299
    17  H    0.000921  -0.033582   0.398900  -0.004225   0.000164  -0.000169
    18  H    0.000227  -0.035269   0.411517  -0.004192   0.000016  -0.000261
    19  H    0.000096  -0.040644  -0.002400   0.416610  -0.000119   0.000035
    20  H   -0.000401  -0.038615  -0.003758   0.401886  -0.000064   0.000136
    21  H   -0.000950  -0.056630   0.008452   0.409605  -0.001065  -0.000043
    22  H    0.000001  -0.002440   0.000095  -0.001292   0.412057   0.008605
    23  H    0.000004  -0.001022   0.000127  -0.000061   0.406582  -0.002471
    24  H   -0.000014   0.000943  -0.000111  -0.000099   0.412233  -0.003850
    25  H   -0.000048  -0.002906  -0.000162   0.000077  -0.004260   0.409137
    26  H   -0.000004  -0.001037  -0.000148   0.000205  -0.002504   0.406083
    27  H   -0.000010   0.000153  -0.001302   0.000070   0.009062   0.412053
    28  S    0.310478   0.004516  -0.003786  -0.000178  -0.000709   0.002317
    29  O   -0.074607  -0.009496  -0.000590   0.000149   0.000252  -0.007084
    30  O   -0.082521  -0.004489   0.000748   0.000026   0.001014   0.000675
    31  C   -0.052733  -0.001283   0.000264   0.000051   0.000051  -0.000216
    32  H   -0.000811   0.000152  -0.000075  -0.000002  -0.000000  -0.000008
    33  H    0.001564  -0.000040  -0.000001   0.000001  -0.000000  -0.000006
    34  H    0.002419   0.000122   0.000002  -0.000001  -0.000000   0.000010
              13         14         15         16         17         18
     1  O   -0.000585   0.000070   0.000107  -0.001094  -0.000677   0.007502
     2  N    0.002698  -0.002537  -0.002543   0.017904   0.005533  -0.022146
     3  C   -0.035248   0.003613  -0.000339  -0.002959  -0.000399   0.001227
     4  C    0.405600   0.024125   0.004831   0.003087   0.001146  -0.000913
     5  C   -0.049103  -0.084136  -0.063091  -0.001297  -0.005588   0.008321
     6  C   -0.001742   0.420377   0.407649  -0.000470   0.002295  -0.001027
     7  S    0.000010  -0.041773  -0.042196   0.000571   0.000921   0.000227
     8  C    0.012765   0.003051   0.007949  -0.065474  -0.033582  -0.035269
     9  C   -0.000909  -0.000012  -0.001066   0.412775   0.398900   0.411517
    10  C   -0.001553  -0.001844   0.005871   0.009211  -0.004225  -0.004192
    11  C   -0.001007  -0.000194   0.000304   0.000142   0.000164   0.000016
    12  C    0.003154  -0.000047  -0.000059  -0.001299  -0.000169  -0.000261
    13  H    0.508795   0.002249  -0.000016  -0.000031  -0.000001   0.000004
    14  H    0.002249   0.490433  -0.014276  -0.000040  -0.000016   0.000001
    15  H   -0.000016  -0.014276   0.530553   0.000092  -0.000052   0.000013
    16  H   -0.000031  -0.000040   0.000092   0.537161  -0.019841  -0.015386
    17  H   -0.000001  -0.000016  -0.000052  -0.019841   0.566175  -0.020834
    18  H    0.000004   0.000001   0.000013  -0.015386  -0.020834   0.528308
    19  H    0.000005   0.000004  -0.000034  -0.000013  -0.000259   0.001896
    20  H    0.000002   0.000014  -0.000135   0.000082   0.001218  -0.000160
    21  H   -0.000019   0.000001  -0.000193  -0.000139   0.000085   0.000036
    22  H    0.000154   0.000004   0.000001  -0.000001  -0.000000  -0.000000
    23  H    0.000579   0.000001   0.000000   0.000000  -0.000000   0.000000
    24  H    0.000003   0.000000  -0.000000  -0.000000   0.000000  -0.000002
    25  H   -0.000031  -0.000000   0.000000   0.000006   0.000000  -0.000007
    26  H    0.000111  -0.000001   0.000000   0.000007  -0.000000  -0.000000
    27  H   -0.000181  -0.000002   0.000000   0.000239   0.000009  -0.000000
    28  S    0.003036  -0.013362   0.003082  -0.000949  -0.000915   0.000352
    29  O   -0.000330   0.000955  -0.000800  -0.000026   0.000163   0.000005
    30  O   -0.000846   0.011322  -0.001304   0.000081   0.000025  -0.000010
    31  C   -0.000100   0.000424  -0.000075   0.000035   0.000047  -0.000002
    32  H    0.000000   0.000005  -0.000000  -0.000000  -0.000000   0.000000
    33  H    0.000000  -0.000011   0.000000   0.000000   0.000000  -0.000000
    34  H    0.000001   0.000028  -0.000000  -0.000000  -0.000000   0.000000
              19         20         21         22         23         24
     1  O    0.008183  -0.000418  -0.000656  -0.000428  -0.000376   0.006502
     2  N   -0.027559   0.005510   0.004049   0.001816   0.005802  -0.024580
     3  C   -0.001362  -0.000715   0.000773  -0.057618  -0.047624  -0.032239
     4  C   -0.001520   0.001401   0.001059  -0.000160   0.002837   0.014879
[...]
    29  O   -0.510809   0.000024
    30  O   -0.570651   0.000047
    31  C    0.150915  -0.000004
 Electronic spatial extent (au):  <R**2>=           4772.7047
 Charge=              0.0000 electrons
 Dipole moment (field-independent basis, Debye):
    X=              4.2468    Y=              1.8562    Z=             -2.0554  Tot=              5.0700
 Quadrupole moment (field-independent basis, Debye-Ang):
   XX=           -108.2130   YY=           -109.0623   ZZ=           -115.9412
   XY=              5.7010   XZ=              6.3953   YZ=             -0.6201
 Traceless Quadrupole moment (field-independent basis, Debye-Ang):
   XX=              2.8591   YY=              2.0099   ZZ=             -4.8691
   XY=              5.7010   XZ=              6.3953   YZ=             -0.6201
 Octapole moment (field-independent basis, Debye-Ang**2):
  XXX=            189.9728  YYY=             -3.8233  ZZZ=              0.3912  XYY=            -14.2222
  XXY=             -7.8979  XXZ=             -8.4221  XZZ=             -0.8992  YZZ=              6.0368
  YYZ=             -2.3330  XYZ=              0.5345
 Hexadecapole moment (field-independent basis, Debye-Ang**3):
 XXXX=          -3988.7491 YYYY=          -1374.2940 ZZZZ=           -669.2610 XXXY=            -14.3278
 XXXZ=            120.7954 YYYX=            -15.6352 YYYZ=              0.8673 ZZZX=            -11.9566
 ZZZY=             -1.8697 XXYY=           -937.5804 XXZZ=           -855.7751 YYZZ=           -347.9836
 XXYZ=             -4.2924 YYXZ=             -4.4210 ZZXY=             14.8483
 N-N= 1.520803023573D+03 E-N=-6.496993230099D+03  KE= 1.459880626792D+03
                          Isotropic Fermi Contact Couplings
        Atom                 a.u.       MegaHertz       Gauss      10(-4) cm-1
     1  O(17)              0.08643     -52.39237     -18.69490     -17.47621
     2  N(14)              0.10622      34.31968      12.24612      11.44781
     3  C(13)             -0.01499     -16.84625      -6.01116      -5.61930
     4  C(13)              0.00018       0.19891       0.07098       0.06635
     5  C(13)             -0.00039      -0.43334      -0.15463      -0.14455
     6  C(13)             -0.00058      -0.64717      -0.23093      -0.21587
     7  S(33)              0.00001       0.00413       0.00147       0.00138
     8  C(13)             -0.01497     -16.82946      -6.00517      -5.61370
     9  C(13)              0.01725      19.39188       6.91951       6.46844
    10  C(13)              0.01349      15.16094       5.40980       5.05714
    11  C(13)              0.01228      13.80314       4.92530       4.60423
    12  C(13)              0.01833      20.60764       7.35332       6.87397
    13  H(1)              -0.00028      -1.26669      -0.45199      -0.42252
    14  H(1)              -0.00003      -0.15539      -0.05545      -0.05183
    15  H(1)               0.00005       0.24575       0.08769       0.08197
    16  H(1)              -0.00033      -1.49210      -0.53242      -0.49771
    17  H(1)               0.00044       1.94774       0.69500       0.64970
    18  H(1)              -0.00050      -2.25167      -0.80345      -0.75108
    19  H(1)              -0.00051      -2.29018      -0.81719      -0.76392
    20  H(1)               0.00023       1.04223       0.37189       0.34765
    21  H(1)              -0.00039      -1.75197      -0.62515      -0.58439
    22  H(1)              -0.00039      -1.73407      -0.61876      -0.57842
    23  H(1)               0.00018       0.81122       0.28946       0.27059
    24  H(1)              -0.00048      -2.13681      -0.76247      -0.71276
    25  H(1)              -0.00049      -2.19647      -0.78376      -0.73266
    26  H(1)               0.00049       2.18765       0.78061       0.72972
    27  H(1)              -0.00034      -1.52049      -0.54255      -0.50718
    28  S(33)             -0.00001      -0.00439      -0.00157      -0.00146
    29  O(17)             -0.00001       0.00499       0.00178       0.00167
    30  O(17)             -0.00001       0.00884       0.00315       0.00295
    31  C(13)              0.00001       0.01310       0.00467       0.00437
    32  H(1)              -0.00000      -0.00044      -0.00016      -0.00015
    33  H(1)               0.00000       0.00645       0.00230       0.00215
    34  H(1)               0.00000       0.00030       0.00011       0.00010
 --------------------------------------------------------
       Center         ----  Spin Dipole Couplings  ----
                      3XX-RR        3YY-RR        3ZZ-RR
 --------------------------------------------------------
     1   Atom       -0.594197     -0.908509      1.502706
     2   Atom       -0.303622     -0.568890      0.872512
     3   Atom       -0.007457      0.010317     -0.002859
     4   Atom        0.006912     -0.005509     -0.001402
     5   Atom        0.009625     -0.006927     -0.002698
     6   Atom        0.002028     -0.001297     -0.000730
     7   Atom        0.003311     -0.001508     -0.001803
     8   Atom        0.000277      0.005489     -0.005766
     9   Atom       -0.010603      0.002005      0.008598
    10   Atom       -0.007187      0.017268     -0.010082
    11   Atom        0.002269      0.000404     -0.002672
    12   Atom       -0.016687      0.018616     -0.001929
    13   Atom        0.001627     -0.001180     -0.000447
    14   Atom        0.001412     -0.001231     -0.000181
    15   Atom        0.001147     -0.000674     -0.000473
    16   Atom        0.003441     -0.003309     -0.000131
    17   Atom        0.000391      0.002164     -0.002555
    18   Atom       -0.002303      0.003953     -0.001650
    19   Atom       -0.004987      0.010342     -0.005354
    20   Atom       -0.001160      0.003916     -0.002756
    21   Atom       -0.005377      0.000420      0.004957
    22   Atom       -0.005186     -0.002177      0.007364
    23   Atom       -0.002548      0.003493     -0.000946
    24   Atom       -0.002427      0.005132     -0.002705
    25   Atom       -0.004375      0.008678     -0.004303
    26   Atom       -0.002649      0.005275     -0.002626
    27   Atom        0.000068      0.001759     -0.001827
    28   Atom        0.001437     -0.000737     -0.000701
    29   Atom        0.001508     -0.000709     -0.000800
    30   Atom        0.001117     -0.000621     -0.000496
    31   Atom        0.000677     -0.000336     -0.000342
    32   Atom        0.000629     -0.000314     -0.000315
    33   Atom        0.000524     -0.000252     -0.000273
    34   Atom        0.000554     -0.000287     -0.000267
 --------------------------------------------------------
                        XY            XZ            YZ
 --------------------------------------------------------
     1   Atom       -0.197248      1.098563     -0.483071
     2   Atom       -0.134435      0.676085     -0.290864
     3   Atom       -0.006683     -0.002309      0.007986
     4   Atom       -0.006271     -0.006260      0.003618
     5   Atom        0.002171     -0.006895     -0.001842
     6   Atom        0.000892     -0.001817     -0.000414
     7   Atom        0.001517      0.000581      0.000377
     8   Atom        0.011864     -0.002825     -0.004215
     9   Atom        0.010677      0.008584      0.021966
    10   Atom       -0.012696      0.005413     -0.018088
    11   Atom        0.014278      0.014143      0.017315
    12   Atom       -0.005149      0.000879     -0.022670
    13   Atom       -0.002622     -0.002927      0.001921
    14   Atom        0.000294     -0.001658     -0.000238
    15   Atom        0.001535     -0.001639     -0.000958
    16   Atom        0.003871      0.007374      0.001992
    17   Atom        0.005143      0.000605      0.001035
    18   Atom        0.004986      0.002147      0.008038
    19   Atom       -0.000970     -0.001364     -0.005563
    20   Atom        0.003179     -0.001000     -0.003326
    21   Atom        0.000780      0.000231     -0.007287
    22   Atom        0.000788      0.002967      0.005479
    23   Atom       -0.000848      0.000003      0.004773
    24   Atom        0.005351      0.001724      0.007381
    25   Atom       -0.001241     -0.001178     -0.005692
    26   Atom       -0.003465     -0.000575      0.000594
    27   Atom       -0.006267      0.005195     -0.004035
    28   Atom       -0.000187     -0.000195      0.000030
    29   Atom       -0.000547      0.000328     -0.000077
    30   Atom       -0.000340     -0.000566      0.000141
    31   Atom       -0.000040     -0.000052      0.000002
    32   Atom        0.000042      0.000066      0.000003
    33   Atom       -0.000121     -0.000025      0.000004
    34   Atom        0.000025     -0.000141     -0.000004
 --------------------------------------------------------


 ---------------------------------------------------------------------------------
              Anisotropic Spin Dipole Couplings in Principal Axis System
 ---------------------------------------------------------------------------------

       Atom             a.u.   MegaHertz   Gauss  10(-4) cm-1        Axes

              Baa    -1.0655    77.096    27.510    25.716  0.9029 -0.1283 -0.4103
     1 O(17)  Bbb    -0.9989    72.282    25.792    24.111  0.1871  0.9766  0.1064
              Bcc     2.0644  -149.378   -53.302   -49.827  0.3871 -0.1729  0.9057
 
              Baa    -0.6259   -24.141    -8.614    -8.053  0.1811  0.9775  0.1080
     2 N(14)  Bbb    -0.6114   -23.580    -8.414    -7.866  0.8947 -0.1181 -0.4308
              Bcc     1.2373    47.722    17.028    15.918  0.4083 -0.1747  0.8960
 
              Baa    -0.0097    -1.304    -0.465    -0.435  0.9335  0.3472 -0.0900
     3 C(13)  Bbb    -0.0065    -0.866    -0.309    -0.289  0.2172 -0.3477  0.9121
              Bcc     0.0162     2.170     0.774     0.724 -0.2854  0.8709  0.4000
 
              Baa    -0.0083    -1.119    -0.399    -0.373  0.2914  0.9304 -0.2223
     4 C(13)  Bbb    -0.0047    -0.637    -0.227    -0.213  0.4942  0.0526  0.8678
              Bcc     0.0131     1.756     0.627     0.586  0.8191 -0.3627 -0.4445
 
              Baa    -0.0076    -1.025    -0.366    -0.342  0.0480  0.9120  0.4074
     5 C(13)  Bbb    -0.0054    -0.731    -0.261    -0.244  0.4290 -0.3871  0.8161
              Bcc     0.0131     1.756     0.626     0.586  0.9020  0.1356 -0.4099
 
              Baa    -0.0016    -0.220    -0.078    -0.073  0.4737 -0.1997  0.8577
     6 C(13)  Bbb    -0.0015    -0.203    -0.072    -0.068 -0.0988  0.9558  0.2771
              Bcc     0.0031     0.422     0.151     0.141  0.8751  0.2160 -0.4331
 
              Baa    -0.0021    -0.087    -0.031    -0.029 -0.1410  0.7515 -0.6444
     7 S(33)  Bbb    -0.0017    -0.070    -0.025    -0.023 -0.2679  0.5977  0.7556
              Bcc     0.0038     0.157     0.056     0.052  0.9531  0.2793  0.1171
 
              Baa    -0.0093    -1.253    -0.447    -0.418  0.7449 -0.6447 -0.1715
     8 C(13)  Bbb    -0.0069    -0.920    -0.328    -0.307  0.2753  0.0630  0.9593
              Bcc     0.0162     2.173     0.775     0.725  0.6077  0.7618 -0.2244
 
              Baa    -0.0185    -2.480    -0.885    -0.827 -0.5280  0.7337 -0.4277
     9 C(13)  Bbb    -0.0133    -1.788    -0.638    -0.596  0.7932  0.2460 -0.5571
              Bcc     0.0318     4.268     1.523     1.424  0.3035  0.6334  0.7118
 
              Baa    -0.0192    -2.572    -0.918    -0.858  0.1032  0.4709  0.8761
    10 C(13)  Bbb    -0.0120    -1.617    -0.577    -0.539  0.9355  0.2532 -0.2463
              Bcc     0.0312     4.189     1.495     1.397 -0.3378  0.8451 -0.4144
 
              Baa    -0.0186    -2.494    -0.890    -0.832 -0.0853 -0.6356  0.7673
    11 C(13)  Bbb    -0.0119    -1.602    -0.572    -0.534  0.8106 -0.4921 -0.3176
              Bcc     0.0305     4.096     1.462     1.366  0.5794  0.5949  0.5571
 
              Baa    -0.0189    -2.537    -0.905    -0.846  0.7535  0.4126  0.5118
    12 C(13)  Bbb    -0.0148    -1.984    -0.708    -0.662 -0.6505  0.3553  0.6712
              Bcc     0.0337     4.521     1.613     1.508 -0.0951  0.8387 -0.5362
 
              Baa    -0.0028    -1.501    -0.536    -0.501  0.2646  0.8824 -0.3890
    13 H(1)   Bbb    -0.0025    -1.338    -0.477    -0.446  0.6317  0.1462  0.7613
              Bcc     0.0053     2.839     1.013     0.947  0.7287 -0.4472 -0.5187
 
              Baa    -0.0013    -0.692    -0.247    -0.231  0.2083  0.8463  0.4902
    14 H(1)   Bbb    -0.0012    -0.638    -0.228    -0.213  0.4983 -0.5232  0.6914
              Bcc     0.0025     1.330     0.475     0.444  0.8416  0.1002 -0.5307
 
              Baa    -0.0016    -0.830    -0.296    -0.277 -0.3414  0.8978  0.2781
    15 H(1)   Bbb    -0.0015    -0.795    -0.284    -0.265  0.5479 -0.0503  0.8350
              Bcc     0.0030     1.625     0.580     0.542  0.7637  0.4375 -0.4748
 
              Baa    -0.0063    -3.366    -1.201    -1.123  0.6481 -0.4106 -0.6414
    16 H(1)   Bbb    -0.0043    -2.270    -0.810    -0.757  0.0484  0.8627 -0.5034
              Bcc     0.0106     5.636     2.011     1.880  0.7600  0.2952  0.5790
 
              Baa    -0.0040    -2.120    -0.757    -0.707  0.7438 -0.6497  0.1569
    17 H(1)   Bbb    -0.0027    -1.427    -0.509    -0.476 -0.2021  0.0052  0.9794
              Bcc     0.0066     3.547     1.266     1.183  0.6371  0.7601  0.1274
 
              Baa    -0.0077    -4.110    -1.467    -1.371  0.2874 -0.6240  0.7266
    18 H(1)   Bbb    -0.0040    -2.126    -0.758    -0.709  0.8891 -0.1083 -0.4446
              Bcc     0.0117     6.236     2.225     2.080  0.3562  0.7739  0.5237
 
              Baa    -0.0080    -4.257    -1.519    -1.420  0.4718  0.2790  0.8364
    19 H(1)   Bbb    -0.0041    -2.214    -0.790    -0.739  0.8812 -0.1169 -0.4581
              Bcc     0.0121     6.471     2.309     2.159 -0.0300  0.9532 -0.3010
 
              Baa    -0.0042    -2.228    -0.795    -0.743 -0.1544  0.4269  0.8910
    20 H(1)   Bbb    -0.0025    -1.344    -0.480    -0.448  0.9080 -0.2942  0.2984
              Bcc     0.0067     3.572     1.275     1.192  0.3895  0.8551 -0.3422
 
              Baa    -0.0060    -3.179    -1.134    -1.060  0.7983 -0.4929 -0.3460
    21 H(1)   Bbb    -0.0044    -2.330    -0.831    -0.777  0.6020  0.6363  0.4824
              Bcc     0.0103     5.509     1.966     1.838 -0.0177 -0.5934  0.8047
 
              Baa    -0.0060    -3.184    -1.136    -1.062  0.9156  0.2568 -0.3093
    22 H(1)   Bbb    -0.0045    -2.389    -0.852    -0.797 -0.3541  0.8794 -0.3182
              Bcc     0.0104     5.573     1.989     1.859  0.1903  0.4009  0.8962
 
              Baa    -0.0041    -2.202    -0.786    -0.735 -0.2865 -0.5313  0.7973
    23 H(1)   Bbb    -0.0025    -1.316    -0.470    -0.439  0.9549 -0.0906  0.2827
              Bcc     0.0066     3.518     1.255     1.173 -0.0780  0.8423  0.5333
 
              Baa    -0.0076    -4.065    -1.450    -1.356  0.3459 -0.5746  0.7418
    24 H(1)   Bbb    -0.0041    -2.180    -0.778    -0.727  0.8652 -0.1106 -0.4891
              Bcc     0.0117     6.245     2.228     2.083  0.3631  0.8110  0.4588
 
              Baa    -0.0073    -3.880    -1.385    -1.294  0.4731  0.3285  0.8175
    25 H(1)   Bbb    -0.0036    -1.913    -0.682    -0.638  0.8796 -0.1242 -0.4592
              Bcc     0.0109     5.793     2.067     1.932 -0.0494  0.9363 -0.3477
 
              Baa    -0.0040    -2.151    -0.767    -0.717  0.9153  0.3257  0.2369
    26 H(1)   Bbb    -0.0026    -1.391    -0.496    -0.464 -0.1943 -0.1583  0.9681
              Bcc     0.0066     3.542     1.264     1.181 -0.3528  0.9321  0.0817
 
              Baa    -0.0064    -3.429    -1.224    -1.144  0.7483  0.2754 -0.6034
    27 H(1)   Bbb    -0.0042    -2.234    -0.797    -0.745  0.2603  0.7148  0.6491
              Bcc     0.0106     5.664     2.021     1.889 -0.6101  0.6428 -0.4632
 
              Baa    -0.0008    -0.031    -0.011    -0.010  0.0517  0.9443 -0.3249
    28 S(33)  Bbb    -0.0007    -0.029    -0.010    -0.010  0.1132  0.3177  0.9414
              Bcc     0.0015     0.060     0.022     0.020  0.9922 -0.0854 -0.0905
 
              Baa    -0.0008     0.061     0.022     0.020 -0.1176  0.0875  0.9892
    29 O(17)  Bbb    -0.0008     0.061     0.022     0.020  0.2343  0.9704 -0.0580
              Bcc     0.0017    -0.122    -0.043    -0.041  0.9650 -0.2250  0.1346
 
              Baa    -0.0007     0.052     0.018     0.017 -0.0563  0.7649 -0.6417
    30 O(17)  Bbb    -0.0006     0.047     0.017     0.016  0.3451  0.6180  0.7064
              Bcc     0.0014    -0.099    -0.035    -0.033  0.9369 -0.1817 -0.2988
 
              Baa    -0.0003    -0.046    -0.016    -0.015  0.0537  0.0632  0.9966
    31 C(13)  Bbb    -0.0003    -0.045    -0.016    -0.015  0.0361  0.9972 -0.0652
              Bcc     0.0007     0.091     0.033     0.031  0.9979 -0.0395 -0.0513
 
              Baa    -0.0003    -0.171    -0.061    -0.057 -0.0706  0.0271  0.9971
    32 H(1)   Bbb    -0.0003    -0.169    -0.060    -0.056 -0.0425  0.9986 -0.0301
              Bcc     0.0006     0.339     0.121     0.113  0.9966  0.0445  0.0694
 
              Baa    -0.0003    -0.146    -0.052    -0.049  0.0343  0.0166  0.9993
    33 H(1)   Bbb    -0.0003    -0.144    -0.051    -0.048  0.1499  0.9885 -0.0215
              Bcc     0.0005     0.290     0.103     0.097  0.9881 -0.1505 -0.0314
 
              Baa    -0.0003    -0.155    -0.055    -0.052  0.1667 -0.1358  0.9766
    34 H(1)   Bbb    -0.0003    -0.153    -0.055    -0.051 -0.0061  0.9903  0.1388
              Bcc     0.0006     0.308     0.110     0.103  0.9860  0.0290 -0.1643
 

 ---------------------------------------------------------------------------------

 No NMR shielding tensors so no spin-rotation constants.
 Leave Link  601 at Mon Jun 17 21:28:02 2019, MaxMem=  8053063680 cpu:               0.0 elap:               0.3
 (Enter /data2/g16/g16/l9999.exe)
 1\1\GINC-CU02\SP\UPBE1PBE\Gen\C10H18N1O3S2(2)\ROOT\17-Jun-2019\0\\#p g
 en 6d pbe1pbe\\start preoptimized\\0,2\O,0,-3.759582,0.205449,0.877701
 \N,0,-2.609131,0.035269,0.379821\C,0,-2.161033,-1.267829,-0.157032\C,0
 ,-0.880683,-0.850592,-0.819139\C,0,-0.605604,0.448774,-0.657988\C,0,0.
 605045,1.125476,-1.199088\S,0,1.942467,1.441361,0.033285\C,0,-1.692306
 ,1.165435,0.115041\C,0,-1.235336,1.76471,1.448711\C,0,-2.423899,2.2196
 54,-0.720014\C,0,-3.210101,-1.809144,-1.13168\C,0,-1.921442,-2.257664,
 0.987931\H,0,-0.240233,-1.560074,-1.336413\H,0,1.061689,0.539349,-2.00
 3142\H,0,0.388448,2.129195,-1.583368\H,0,-0.667015,1.03654,2.036519\H,
 0,-0.604583,2.645665,1.291161\H,0,-2.120428,2.069591,2.018122\H,0,-3.3
 16592,2.545335,-0.179246\H,0,-1.785285,3.09373,-0.891069\H,0,-2.731398
 ,1.810668,-1.688786\H,0,-3.365485,-1.117958,-1.964764\H,0,-2.892984,-2
 .775733,-1.532976\H,0,-4.161369,-1.939648,-0.603638\H,0,-2.851351,-2.4
 03014,1.54937\H,0,-1.595177,-3.225413,0.593168\H,0,-1.148609,-1.88545,
 1.670399\S,0,2.758523,-0.534588,0.109976\O,0,2.336432,-1.21289,1.35282
 4\O,0,2.507639,-1.182962,-1.203859\C,0,4.510088,-0.16938,0.247346\H,0,
 4.660152,0.447818,1.133887\H,0,4.998813,-1.140387,0.363506\H,0,4.83039
 8,0.333914,-0.666295\\Version=AM64L-G16RevB.01\State=2-A\HF=-1467.5484
 698\S2=0.755015\S2-1=0.\S2A=0.750017\RMSD=8.860e-09\Dipole=1.6743274,0
 .7273556,-0.8040173\Quadrupole=2.1206332,1.4770351,-3.5976684,4.234523
 3,4.7710057,-0.4568931\PG=C01 [X(C10H18N1O3S2)]\\@


 THE UNDERLYING PHYSICAL LAWS NECESSARY FOR THE 
 MATHEMATICAL THEORY OF A LARGE PART OF PHYSICS AND THE
 WHOLE OF CHEMISTRY ARE THUS COMPLETELY KNOWN, AND THE
 DIFFICULTY IS ONLY THAT THE EXACT APPLICATION OF THESE
 LAWS LEADS TO EQUATIONS MUCH TOO COMPLICATED 
 TO BE SOLUBLE.

                                        -- P. A. M. DIRAC, 1929
 Elapsed time:       0 days  0 hours  2 minutes 45.3 seconds.
 File lengths (MBytes):  RWF=    181 Int=      0 D2E=      0 Chk=     15 Scr=      1
 Normal termination of Gaussian 16 at Mon Jun 17 21:28:03 2019.
