 Entering Gaussian System, Link 0=g16
 AtFile(1): /home/malgo/Basis_sets/n07d_pbe0.gbs
            -H 0
             6-31G
             S   1 1.00       0.000000000000
                  0.4000000000D+00  0.10000000D+01
             P   1 1.00       0.000000000000
                  0.7500000000D+00  0.10000000D+01
             ****
             -He 0
             6-31+G**
             ****
             -Li 0
             6-31+G**
             ****
             -Be 0
             6-31+G**
             ****
             -B 0
             6-31G
             S   1 1.00       0.000000000000
                  0.7000000000D+01  0.1000000000D+01
             P   1 1.00       0.000000000000
                  0.3500000000D-01  0.1000000000D+01
             D   1 1.00
                  0.3430000000D+00  0.1000000000D+01
             ****
             -C 0
             6-31G
             S   1 1.00       0.000000000000
                  0.8700000000D+01  0.1000000000D+01
             P   1 1.00       0.000000000000
                  0.5000000000D-01  0.1000000000D+01
             D   1 1.00
                  0.8200000000D+00  0.1000000000D+01
             ****
             -N 0
             6-31G
             S   1 1.00       0.000000000000
                  0.1370000000D+02  0.1000000000D+01
             P   1 1.00       0.000000000000
                  0.5300000000D-01  0.1000000000D+01
             D   1 1.00       0.000000000000
                  0.1015000000D+01  0.1000000000D+01
             ****
             -O 0
             6-31G
             S   1 1.00
                  0.1600000000D+02  0.1000000000D+01
             P   1 1.00       0.000000000000
                  0.6500000000D-01  0.1000000000D+01
             D   1 1.00        0.000000000000
                  0.1190000000D+01  0.1000000000D+01
             D   1 1.00        0.000000000000
                  0.1800000000D+00  0.1000000000D+01
             ****
             -F 0
             6-31G
             S   1 1.00
                  0.1770000000D+02  0.1000000000D+01
             P   1 1.00       0.000000000000
                  0.8300000000D-01  0.1000000000D+01
             D   1 1.00       0.000000000000
                  1.3700000000D+00  0.1000000000D+01
             D   1 1.00       0.000000000000
                  0.2300000000D+00  0.1000000000D+01
             ****
             -Ne 0
             6-31+G**
             ****
             -Na 0
             6-31+G**
             ****
             -Mg 0
             6-31+G**
             ****
             -Al 0
             6-31G
             S   1 1.00      0.000000000000
                  0.3100000000D+01  0.1000000000D+01
             P   1 1.00      0.000000000000
                  0.1500000000D-01  0.1000000000D+01
             D   1 1.00      0.000000000000
                  0.1890000000D+00  0.1000000000D+01
             ****
             -Si 0
             6-31G
             S   1 1.00      0.000000000000
                  0.5000000000D+01  0.1000000000D+01
             P   1 1.00       0.000000000000
                  0.3300000000D-01  0.1000000000D+01
             D   1 1.0        0.000000000000
                  0.2750000000D+00  0.1000000000D+01
             ****
             -P  0
             6-31G
             S   1 1.00       0.000000000000
                  0.6300000000D+01  0.1000000000D+01
             P   1 1.00       0.000000000000
                  0.3500000000D-01  0.1000000000D+01
             D   1 1.00       0.000000000000
                  0.3730000000D+00  0.1000000000D+01
             ****
             -S  0
             6-31G
             S   1  1.00      0.000000000000
                  0.7500000000D+01  0.1000000000D+01
             P   1 1.00       0.000000000000
                  0.4100000000D-01  0.1000000000D+01
             D   1 1.00       0.000000000000
                  0.4790000000D+00  0.1000000000D+01
             ****
            -Cl 0
             6-31G
             S   1 1.00       0.000000000000
                  0.8500000000D+01  0.1000000000D+01
             P   1 1.00       0.000000000000
                  0.4800000000D-01  0.1000000000D+01
             D   1 1.00       0.000000000000
                  0.6000000000D+00  0.1000000000D+01
             D   1 1.00       0.000000000000
                  0.1960000000D+00  0.1000000000D+01
             ****
            -Br 0
             S   3 1.00       0.000000000000
                  0.4721881000D+01  0.1749732514D+00
                  0.2257555000D+01 -0.7074172290D+00
                  0.3896080000D+00  0.1258999543D+01
             S   1 1.00       0.000000000000
                  0.1471340000D+00  0.1000000000D+01
             P   3 1.00       0.000000000000
                  0.1896942000D+01 -0.2464576731D+00
                  0.9108990000D+00  0.3623179892D+00
                  0.3168550000D+00  0.8338469725D+00
             P   1 1.00       0.000000000000
                  0.1095030000D+00  0.1000000000D+01
             P   1 1.00       0.000000000000
                  0.3609700000D-01  0.1000000000D+01
             D   1 1.00
                  0.4750000000D+00  0.1000000000D+01
             D   1 1.00
                  0.1280000000D+00  0.1000000000D+01
             ****
            -I   0
             S   3 1.00       0.000000000000
                  0.2122765000D+01  0.2063429899D+01
                  0.1770481000D+01 -0.2869526473D+01
                  0.3130840000D+00  0.1404747074D+01
             S   1 1.00       0.000000000000
                  0.1320000000D+00  0.1000000000D+01
             P   3 1.00       0.000000000000
                  0.2432887000D+01  0.7732753148D+00
                  0.2137249000D+01 -0.1020833156D+01
                  0.3145460000D+00  0.1095666871D+01
             P   1 1.00       0.000000000000
                  0.1049450000D+00  0.1000000000D+01
             P   1 1.00       0.000000000000
                  0.3264100000D-01  0.1000000000D+01
             D   1 1.00
                  0.300000000          1.00000000
             D   1 1.00
                  0.090000000          1.00000000
             ****
             -Zn 0
             SP   6 1.00       0.000000000000
                  0.6936492000D+02 -0.4440098182D-02 -0.7689261805D-02
                  0.2362082000D+02  0.7505253308D-01 -0.2997981924D-01
                  0.1018471000D+02  0.2533111104D+00  0.7082410821D-01
                  0.4334082000D+01 -0.2881897118D+00  0.4046140897D+00
                  0.1810918000D+01 -0.7267052298D+00  0.4882324876D+00
                  0.7148410000D+00 -0.2133439088D+00  0.1751969956D+00
             SP   3 1.00       0.000000000000
                  0.2823842000D+01  0.4898545031D-01 -0.1586762981D+00
                  0.1039543000D+01  0.2592794075D+00  0.8379326898D-01
                  0.1432640000D+00 -0.1115711463D+01  0.9840546881D+00
             SP   1 1.00       0.000000000000
                  0.4929600000D-01  0.1000000000D+01  0.1000000000D+01
             S    1 1.00       0.000000000000
                  0.1620000000D+00  0.1000000000D+01
             D    3 1.00       0.000000000000
                  0.3370764000D+02  0.9262647815D-01
                  0.9061106000D+01  0.4002979920D+00
                  0.2738383000D+01  0.6896607863D+00
             D    1 1.00
                  0.2440000000D+01  0.1000000000D+01
             D    1 1.00       0.000000000000
                  0.7302940000D+00  0.1000000000D+01
             D    1 1.00       0.000000000000
                  0.1620000000D+00  0.1000000000D+01
            ****
 Initial command:
 /data2/g16/g16/l1.exe "/tmp/Gau-10579.inp" -scrdir="/tmp/"
 Entering Link 1 = /data2/g16/g16/l1.exe PID=     10580.
  
 Copyright (c) 1988-2017, Gaussian, Inc.  All Rights Reserved.
  
 This is part of the Gaussian(R) 16 program.  It is based on
 the Gaussian(R) 09 system (copyright 2009, Gaussian, Inc.),
 the Gaussian(R) 03 system (copyright 2003, Gaussian, Inc.),
 the Gaussian(R) 98 system (copyright 1998, Gaussian, Inc.),
 the Gaussian(R) 94 system (copyright 1995, Gaussian, Inc.),
 the Gaussian 92(TM) system (copyright 1992, Gaussian, Inc.),
 the Gaussian 90(TM) system (copyright 1990, Gaussian, Inc.),
 the Gaussian 88(TM) system (copyright 1988, Gaussian, Inc.),
 the Gaussian 86(TM) system (copyright 1986, Carnegie Mellon
 University), and the Gaussian 82(TM) system (copyright 1983,
 Carnegie Mellon University). Gaussian is a federally registered
 trademark of Gaussian, Inc.
  
 This software contains proprietary and confidential information,
 including trade secrets, belonging to Gaussian, Inc.
  
 This software is provided under written license and may be
 used, copied, transmitted, or stored only in accord with that
 written license.
  
 The following legend is applicable only to US Government
 contracts under FAR:
  
                    RESTRICTED RIGHTS LEGEND
  
 Use, reproduction and disclosure by the US Government is
 subject to restrictions as set forth in subparagraphs (a)
 and (c) of the Commercial Computer Software - Restricted
 Rights clause in FAR 52.227-19.
  
 Gaussian, Inc.
 340 Quinnipiac St., Bldg. 40, Wallingford CT 06492
  
  
 ---------------------------------------------------------------
 Warning -- This program may not be used in any manner that
 competes with the business of Gaussian, Inc. or will provide
 assistance to any competitor of Gaussian, Inc.  The licensee
 of this program is prohibited from giving any competitor of
 Gaussian, Inc. access to this program.  By using this program,
 the user acknowledges that Gaussian, Inc. is engaged in the
 business of creating and licensing software in the field of
 computational chemistry and represents and warrants to the
 licensee that it is not a competitor of Gaussian, Inc. and that
 it will not use this program in any manner prohibited above.
 ---------------------------------------------------------------
  

 Cite this work as:
 Gaussian 16, Revision B.01,
 M. J. Frisch, G. W. Trucks, H. B. Schlegel, G. E. Scuseria, 
 M. A. Robb, J. R. Cheeseman, G. Scalmani, V. Barone, 
 G. A. Petersson, H. Nakatsuji, X. Li, M. Caricato, A. V. Marenich, 
 J. Bloino, B. G. Janesko, R. Gomperts, B. Mennucci, H. P. Hratchian, 
 J. V. Ortiz, A. F. Izmaylov, J. L. Sonnenberg, D. Williams-Young, 
 F. Ding, F. Lipparini, F. Egidi, J. Goings, B. Peng, A. Petrone, 
 T. Henderson, D. Ranasinghe, V. G. Zakrzewski, J. Gao, N. Rega, 
 G. Zheng, W. Liang, M. Hada, M. Ehara, K. Toyota, R. Fukuda, 
 J. Hasegawa, M. Ishida, T. Nakajima, Y. Honda, O. Kitao, H. Nakai, 
 T. Vreven, K. Throssell, J. A. Montgomery, Jr., J. E. Peralta, 
 F. Ogliaro, M. J. Bearpark, J. J. Heyd, E. N. Brothers, K. N. Kudin, 
 V. N. Staroverov, T. A. Keith, R. Kobayashi, J. Normand, 
 K. Raghavachari, A. P. Rendell, J. C. Burant, S. S. Iyengar, 
 J. Tomasi, M. Cossi, J. M. Millam, M. Klene, C. Adamo, R. Cammi, 
 J. W. Ochterski, R. L. Martin, K. Morokuma, O. Farkas, 
 J. B. Foresman, and D. J. Fox, Gaussian, Inc., Wallingford CT, 2016.
 
 ******************************************
 Gaussian 16:  AM64L-G16RevB.01 20-Dec-2017
                12-Jun-2019 
 ******************************************
 %chk=MTN_PBE0_-0.20.chk
 %mem=60GB
 %nprocshared=12
 Will use up to   12 processors via shared memory.
 -----------------
 #p gen 6d pbe1pbe
 -----------------
 1/38=1,172=1/1;
 2/12=2,17=6,18=5,40=1/2;
 3/5=7,8=2,11=2,25=1,30=1,74=-13/1,2,3;
 4//1;
 5/5=2,38=5/2;
 6/7=2,8=2,9=2,10=2,28=1/1;
 99/5=1,9=1/99;
 Leave Link    1 at Wed Jun 12 15:25:55 2019, MaxMem=  8053063680 cpu:               0.0 elap:               0.1
 (Enter /data2/g16/g16/l101.exe)
 ------------------
 start preoptimized
 ------------------
 Symbolic Z-matrix:
 Charge =  0 Multiplicity = 2
 O                    -3.75198   0.20225   0.8917 
 N                    -2.61193   0.03607   0.37422 
 C                    -2.16183  -1.26783  -0.15823 
 C                    -0.87908  -0.85179  -0.81594 
 C                    -0.6048    0.44797  -0.65719 
 C                     0.60545   1.12508  -1.19869 
 S                     1.94287   1.44216   0.03329 
 C                    -1.69311   1.16543   0.11304 
 C                    -1.23934   1.76311   1.44831 
 C                    -2.4207    2.22125  -0.72361 
 C                    -3.2053   -1.81074  -1.13768 
 C                    -1.92944  -2.25526   0.98993 
 H                    -0.23743  -1.56167  -1.33121 
 H                     1.06209   0.53895  -2.00234 
 H                     0.38805   2.1284   -1.58337 
 H                    -0.67382   1.03374   2.03692 
 H                    -0.60698   2.64327   1.29276 
 H                    -2.12563   2.06839   2.01532 
 H                    -3.31499   2.54774  -0.18565 
 H                    -1.78089   3.09493  -0.89187 
 H                    -2.7254    1.81347  -1.69359 
 H                    -3.35589  -1.12076  -1.97276 
 H                    -2.88578  -2.77813  -1.53578 
 H                    -4.15937  -1.94085  -0.61524 
 H                    -2.86255  -2.39781   1.54617 
 H                    -1.60238  -3.22421   0.59877 
 H                    -1.16021  -1.88265   1.6756 
 S                     2.75812  -0.53419   0.10958 
 O                     2.33563  -1.21249   1.35242 
 O                     2.50684  -1.18176  -1.20426 
 C                     4.51009  -0.17058   0.24655 
 H                     4.66095   0.44622   1.13349 
 H                     4.99801  -1.14199   0.36231 
 H                     4.8304    0.33311  -0.6667 
 
 ITRead=  0  0  0  0  0  0  0  0  0  0  0  0  0  0  0  0  0  0  0  0
 ITRead=  0  0  0  0  0  0  0  0  0  0  0  0  0  0
 MicOpt= -1 -1 -1 -1 -1 -1 -1 -1 -1 -1 -1 -1 -1 -1 -1 -1 -1 -1 -1 -1
 MicOpt= -1 -1 -1 -1 -1 -1 -1 -1 -1 -1 -1 -1 -1 -1
 NAtoms=     34 NQM=       34 NQMF=       0 NMMI=      0 NMMIF=      0
                NMic=       0 NMicF=      0.
                    Isotopes and Nuclear Properties:
 (Nuclear quadrupole moments (NQMom) in fm**2, nuclear magnetic moments (NMagM)
  in nuclear magnetons)

  Atom         1           2           3           4           5           6           7           8           9          10
 IAtWgt=          16          14          12          12          12          12          32          12          12          12
 AtmWgt=  15.9949146  14.0030740  12.0000000  12.0000000  12.0000000  12.0000000  31.9720718  12.0000000  12.0000000  12.0000000
 NucSpn=           0           2           0           0           0           0           0           0           0           0
 AtZEff=   0.0000000   0.0000000   0.0000000   0.0000000   0.0000000   0.0000000   0.0000000   0.0000000   0.0000000   0.0000000
 NQMom=    0.0000000   2.0440000   0.0000000   0.0000000   0.0000000   0.0000000   0.0000000   0.0000000   0.0000000   0.0000000
 NMagM=    0.0000000   0.4037610   0.0000000   0.0000000   0.0000000   0.0000000   0.0000000   0.0000000   0.0000000   0.0000000
 AtZNuc=   8.0000000   7.0000000   6.0000000   6.0000000   6.0000000   6.0000000  16.0000000   6.0000000   6.0000000   6.0000000

  Atom        11          12          13          14          15          16          17          18          19          20
 IAtWgt=          12          12           1           1           1           1           1           1           1           1
 AtmWgt=  12.0000000  12.0000000   1.0078250   1.0078250   1.0078250   1.0078250   1.0078250   1.0078250   1.0078250   1.0078250
 NucSpn=           0           0           1           1           1           1           1           1           1           1
 AtZEff=   0.0000000   0.0000000   0.0000000   0.0000000   0.0000000   0.0000000   0.0000000   0.0000000   0.0000000   0.0000000
 NQMom=    0.0000000   0.0000000   0.0000000   0.0000000   0.0000000   0.0000000   0.0000000   0.0000000   0.0000000   0.0000000
 NMagM=    0.0000000   0.0000000   2.7928460   2.7928460   2.7928460   2.7928460   2.7928460   2.7928460   2.7928460   2.7928460
 AtZNuc=   6.0000000   6.0000000   1.0000000   1.0000000   1.0000000   1.0000000   1.0000000   1.0000000   1.0000000   1.0000000

  Atom        21          22          23          24          25          26          27          28          29          30
 IAtWgt=           1           1           1           1           1           1           1          32          16          16
 AtmWgt=   1.0078250   1.0078250   1.0078250   1.0078250   1.0078250   1.0078250   1.0078250  31.9720718  15.9949146  15.9949146
 NucSpn=           1           1           1           1           1           1           1           0           0           0
 AtZEff=   0.0000000   0.0000000   0.0000000   0.0000000   0.0000000   0.0000000   0.0000000   0.0000000   0.0000000   0.0000000
 NQMom=    0.0000000   0.0000000   0.0000000   0.0000000   0.0000000   0.0000000   0.0000000   0.0000000   0.0000000   0.0000000
 NMagM=    2.7928460   2.7928460   2.7928460   2.7928460   2.7928460   2.7928460   2.7928460   0.0000000   0.0000000   0.0000000
 AtZNuc=   1.0000000   1.0000000   1.0000000   1.0000000   1.0000000   1.0000000   1.0000000  16.0000000   8.0000000   8.0000000

  Atom        31          32          33          34
 IAtWgt=          12           1           1           1
 AtmWgt=  12.0000000   1.0078250   1.0078250   1.0078250
 NucSpn=           0           1           1           1
 AtZEff=   0.0000000   0.0000000   0.0000000   0.0000000
 NQMom=    0.0000000   0.0000000   0.0000000   0.0000000
 NMagM=    0.0000000   2.7928460   2.7928460   2.7928460
 AtZNuc=   6.0000000   1.0000000   1.0000000   1.0000000
 Leave Link  101 at Wed Jun 12 15:25:55 2019, MaxMem=  8053063680 cpu:               0.0 elap:               0.1
 (Enter /data2/g16/g16/l202.exe)
                          Input orientation:                          
 ---------------------------------------------------------------------
 Center     Atomic      Atomic             Coordinates (Angstroms)
 Number     Number       Type             X           Y           Z
 ---------------------------------------------------------------------
      1          8           0       -3.751982    0.202249    0.891701
      2          7           0       -2.611931    0.036069    0.374221
      3          6           0       -2.161833   -1.267829   -0.158232
      4          6           0       -0.879083   -0.851792   -0.815939
      5          6           0       -0.604804    0.447974   -0.657188
      6          6           0        0.605445    1.125076   -1.198688
      7         16           0        1.942867    1.442161    0.033285
      8          6           0       -1.693106    1.165435    0.113041
      9          6           0       -1.239336    1.763110    1.448311
     10          6           0       -2.420699    2.221254   -0.723614
     11          6           0       -3.205301   -1.810744   -1.137680
     12          6           0       -1.929442   -2.255264    0.989931
     13          1           0       -0.237433   -1.561674   -1.331213
     14          1           0        1.062089    0.538949   -2.002342
     15          1           0        0.388048    2.128395   -1.583368
     16          1           0       -0.673815    1.033740    2.036919
     17          1           0       -0.606983    2.643265    1.292761
     18          1           0       -2.125628    2.068391    2.015322
     19          1           0       -3.314992    2.547735   -0.185646
     20          1           0       -1.780885    3.094930   -0.891869
     21          1           0       -2.725398    1.813468   -1.693586
     22          1           0       -3.355885   -1.120758   -1.972764
     23          1           0       -2.885784   -2.778133   -1.535776
     24          1           0       -4.159369   -1.940848   -0.615238
     25          1           0       -2.862551   -2.397814    1.546170
     26          1           0       -1.602377   -3.224213    0.598768
     27          1           0       -1.160209   -1.882650    1.675599
     28         16           0        2.758123   -0.534188    0.109576
     29          8           0        2.335632   -1.212490    1.352424
     30          8           0        2.506839   -1.181762   -1.204259
     31          6           0        4.510088   -0.170580    0.246546
     32          1           0        4.660952    0.446218    1.133487
     33          1           0        4.998013   -1.141987    0.362306
     34          1           0        4.830398    0.333114   -0.666695
 ---------------------------------------------------------------------
                    Distance matrix (angstroms):
                    1          2          3          4          5
     1  O    0.000000
     2  N    1.262980   0.000000
     3  C    2.406670   1.478595   0.000000
     4  C    3.504367   2.282004   1.500371   0.000000
     5  C    3.516272   2.293911   2.370079   1.337842   0.000000
     6  C    4.920214   3.743192   3.803468   2.501665   1.488755
     7  S    5.891143   4.779071   4.922325   3.734542   2.820601
     8  C    2.402709   1.479163   2.492803   2.365342   1.514069
     9  C    3.009899   2.453642   3.552263   3.477689   2.562292
    10  C    2.908253   2.452926   3.544061   3.439290   2.538978
    11  C    2.910221   2.459401   1.530654   2.536611   3.477825
    12  C    3.061155   2.468825   1.532094   2.516775   3.431496
    13  H    4.517170   3.331595   2.272783   1.086809   2.151269
    14  H    5.627089   4.404471   4.130237   2.666432   2.143886
    15  H    5.193828   4.148476   4.479648   3.328075   2.160412
    16  H    3.387922   2.741570   3.511425   3.425809   2.757915
    17  H    4.001303   3.414821   4.451920   4.090975   2.936258
    18  H    2.718462   2.657073   3.981961   4.254102   3.475768
    19  H    2.617812   2.667623   3.986108   4.229386   3.460703
    20  H    3.928606   3.413247   4.440384   4.049151   2.905962
    21  H    3.214593   2.729075   3.488454   3.358981   2.726832
    22  H    3.180000   2.720304   2.177135   2.746841   3.429301
    23  H    3.940256   3.412157   2.168583   2.873291   4.047537
    24  H    2.651357   2.698480   2.156840   3.462167   4.282892
    25  H    2.824844   2.712943   2.161679   3.450201   4.248614
    26  H    4.055521   3.420389   2.171055   2.855334   4.007185
    27  H    3.417395   2.735428   2.178117   2.710989   3.343976
    28  S    6.598146   5.406728   4.981558   3.766526   3.586342
    29  O    6.266801   5.195590   4.744717   3.894393   3.929611
    30  O    6.743988   5.493316   4.785194   3.424053   3.554947
    31  C    8.295603   7.126160   6.773650   5.534988   5.230819
    32  H    8.419943   7.323902   7.152405   6.014739   5.561898
    33  H    8.868463   7.700598   7.179846   6.001061   5.912605
    34  H    8.723702   7.520638   7.191165   5.833048   5.436424
                    6          7          8          9         10
     6  C    0.000000
     7  S    1.845806   0.000000
     8  C    2.646809   3.647360   0.000000
     9  C    3.288907   3.497388   1.531688   0.000000
    10  C    3.253436   4.496731   1.531057   2.514512   0.000000
    11  C    4.810878   6.201305   3.564923   4.829576   4.128445
    12  C    4.758403   5.438833   3.539205   4.102888   4.818380
    13  H    2.818977   3.954565   3.412034   4.447893   4.409804
    14  H    1.094499   2.394857   3.529650   4.324596   4.073709
    15  H    1.096307   2.345623   2.852420   3.460186   2.938853
    16  H    3.480517   3.320901   2.181193   1.094648   3.475965
    17  H    3.159462   3.087178   2.180684   1.094869   2.744709
    18  H    4.321859   4.568729   2.149669   1.095542   2.759022
    19  H    4.291857   5.377295   2.151855   2.755685   1.093508
    20  H    3.109507   4.177785   2.177269   2.746536   1.095893
    21  H    3.437051   4.991257   2.179329   3.475979   1.095434
    22  H    4.618993   6.218485   3.513132   4.949771   3.688359
    23  H    5.247604   6.602174   4.437658   5.677892   5.086235
    24  H    5.695942   7.007326   4.032597   5.148216   4.511963
    25  H    5.654378   6.334530   4.014748   4.467403   5.165553
    26  H    5.198234   5.887578   4.417372   5.072170   5.663167
    27  H    4.519455   4.835354   3.466466   3.653695   4.918037
    28  S    3.016411   2.139256   4.764679   4.800986   5.925105
    29  O    3.868583   2.990245   4.839559   4.652288   6.222798
    30  O    2.989453   2.955427   4.988402   5.453643   6.007676
    31  C    4.360466   3.039249   6.346840   6.183791   7.395802
    32  H    4.727264   3.096826   6.475541   6.053653   7.533217
    33  H    5.183718   4.014971   7.082189   6.965882   8.217536
    34  H    4.331333   3.171402   6.622451   6.584817   7.493112
                   11         12         13         14         15
    11  C    0.000000
    12  C    2.520346   0.000000
    13  H    2.984582   2.954940   0.000000
    14  H    4.947658   5.070560   2.559646   0.000000
    15  H    5.350478   5.586510   3.751189   1.776572   0.000000
    16  H    4.957579   3.672919   4.274449   4.424230   3.928397
    17  H    5.700570   5.082931   4.970243   4.251076   3.086632
    18  H    5.114177   4.447911   5.286014   5.351855   4.390073
    19  H    4.462593   5.135224   5.260317   5.147275   3.980198
    20  H    5.114198   5.673431   4.925366   3.981041   2.473182
    21  H    3.697871   4.938561   4.208666   4.008090   3.131273
    22  H    1.093673   3.478420   3.214146   4.719533   4.972490
    23  H    1.093807   2.750850   2.921538   5.177491   5.898666
    24  H    1.095499   2.765502   4.004744   5.944500   6.178593
    25  H    2.768606   1.095634   3.983680   6.051389   6.391163
    26  H    2.753636   1.094917   2.889971   5.294010   6.113421
    27  H    3.478809   1.095765   3.161560   4.932545   5.395039
    28  S    6.224763   5.070542   3.479218   2.913478   3.946221
    29  O    6.104135   4.405637   3.734234   3.992982   4.855252
    30  O    5.747051   5.064333   2.773352   2.384342   3.948435
    31  C    8.008336   6.809264   5.192631   4.177275   5.062123
    32  H    8.492939   7.124037   5.839568   4.774289   5.335610
    33  H    8.366096   7.044355   5.518518   4.889642   5.977694
    34  H    8.330091   7.425601   5.451121   4.003308   4.878299
                   16         17         18         19         20
    16  H    0.000000
    17  H    1.774488   0.000000
    18  H    1.782899   1.777317   0.000000
    19  H    3.769322   3.086766   2.547276   0.000000
    20  H    3.748587   2.520844   3.102320   1.775291   0.000000
    21  H    4.328237   3.754266   3.765728   1.777822   1.782414
    22  H    5.283268   5.691044   5.252526   4.080846   4.628281
    23  H    5.673388   6.525727   6.056148   5.511074   6.010681
    24  H    5.294450   6.105244   5.208641   4.587472   5.576089
    25  H    4.099630   5.528497   4.550840   5.259500   6.106085
    26  H    4.589190   5.991639   5.503824   6.071552   6.495031
    27  H    2.978668   4.575645   4.081442   5.266463   5.635018
    28  S    4.236891   4.777036   5.852889   6.816754   5.897117
    29  O    3.817179   4.850710   5.577316   6.959490   6.366823
    30  O    5.052746   5.528275   6.510679   6.988593   6.064013
    31  C    5.615040   5.932681   7.223177   8.295053   7.178850
    32  H    5.442528   5.709949   7.033260   8.352974   7.253620
    33  H    6.301409   6.827141   7.986567   9.111550   8.091840
    34  H    6.172258   6.224257   7.654456   8.454782   7.168500
                   21         22         23         24         25
    21  H    0.000000
    22  H    3.014156   0.000000
    23  H    4.597111   1.777314   0.000000
    24  H    4.161009   1.777923   1.780577   0.000000
    25  H    5.315047   3.775864   3.105410   2.561687   0.000000
    26  H    5.647503   3.756606   2.530296   3.107900   1.780041
    27  H    5.240469   4.325740   3.753988   3.774425   1.783287
    28  S    6.231523   6.485468   6.292548   7.096178   6.093347
    29  O    6.636914   6.592318   6.168964   6.825484   5.335132
    30  O    6.048731   5.913193   5.633710   6.735094   6.154185
    31  C    7.749375   8.228105   8.042072   8.890220   7.810595
    32  H    8.026200   8.739215   8.629868   9.303450   8.053690
    33  H    8.521296   8.674135   8.272481   9.243994   8.047801
    34  H    7.767626   8.416341   8.365084   9.273050   8.457908
                   26         27         28         29         30
    26  H    0.000000
    27  H    1.776195   0.000000
    28  S    5.146795   4.429910   0.000000
    29  O    4.485860   3.574138   1.477587   0.000000
    30  O    4.930331   4.715089   1.486155   2.562593   0.000000
    31  C    6.841854   6.093082   1.794534   2.652697   2.672140
    32  H    7.279236   6.293125   2.372835   2.864674   3.571495
    33  H    6.925080   6.340112   2.334609   2.841404   2.943069
    34  H    7.458992   6.803185   2.376791   3.562245   2.825376
                   31         32         33         34
    31  C    0.000000
    32  H    1.090809   0.000000
    33  H    1.093208   1.797422   0.000000
    34  H    1.091016   1.811673   1.806339   0.000000
 Stoichiometry    C10H18NO3S2(2)
 Framework group  C1[X(C10H18NO3S2)]
 Deg. of freedom    96
 Full point group                 C1      NOp   1
 Largest Abelian subgroup         C1      NOp   1
 Largest concise Abelian subgroup C1      NOp   1
                         Standard orientation:                         
 ---------------------------------------------------------------------
 Center     Atomic      Atomic             Coordinates (Angstroms)
 Number     Number       Type             X           Y           Z
 ---------------------------------------------------------------------
      1          8           0       -3.750500    0.195896    0.898811
      2          7           0       -2.611202    0.031387    0.379142
      3          6           0       -2.159872   -1.272069   -0.153350
      4          6           0       -0.879189   -0.854204   -0.813922
      5          6           0       -0.606892    0.446151   -0.656590
      6          6           0        0.601061    1.125030   -1.200983
      7         16           0        1.940402    1.445306    0.028077
      8          6           0       -1.694907    1.162201    0.115355
      9          6           0       -1.239503    1.761572    1.449308
     10          6           0       -2.426054    2.216171   -0.720533
     11          6           0       -3.204350   -1.817485   -1.130328
     12          6           0       -1.923417   -2.258322    0.994999
     13          1           0       -0.237324   -1.563295   -1.330017
     14          1           0        1.057120    0.539174   -2.005166
     15          1           0        0.381113    2.127705   -1.585892
     16          1           0       -0.671506    1.033598    2.037260
     17          1           0       -0.609025    2.642740    1.291896
     18          1           0       -2.125189    2.065664    2.017903
     19          1           0       -3.319837    2.541429   -0.180978
     20          1           0       -1.788129    3.090864   -0.890661
     21          1           0       -2.731987    1.807197   -1.689616
     22          1           0       -3.357840   -1.128326   -1.965566
     23          1           0       -2.883925   -2.784574   -1.528424
     24          1           0       -4.157131   -1.948927   -0.605875
     25          1           0       -2.855149   -2.402150    1.553215
     26          1           0       -1.595427   -3.226953    0.603822
     27          1           0       -1.153464   -1.883889    1.678865
     28         16           0        2.759308   -0.529547    0.104039
     29          8           0        2.340526   -1.207762    1.348189
     30          8           0        2.506521   -1.178444   -1.208855
     31          6           0        4.510899   -0.162748    0.237230
     32          1           0        4.662460    0.454910    1.123454
     33          1           0        5.000776   -1.133213    0.352652
     34          1           0        4.828474    0.340900   -0.676991
 ---------------------------------------------------------------------
 Rotational constants (GHZ):           0.7789325           0.2770943           0.2424408
 Leave Link  202 at Wed Jun 12 15:25:55 2019, MaxMem=  8053063680 cpu:               0.0 elap:               0.1
 (Enter /data2/g16/g16/l301.exe)
 General basis read from cards:  (6D, 7F)
 Centers:      13     14     15     16     17     18     19     20     21     22
 Centers:      23     24     25     26     27     32     33     34
 6-31G
 S 1 1.00 0.000000000000
     Exponent=  4.0000000000D-01 Coefficients=  1.0000000000D+00
 P 1 1.00 0.000000000000
     Exponent=  7.5000000000D-01 Coefficients=  1.0000000000D+00
 ****
 Centers:       3      4      5      6      8      9     10     11     12     31
 6-31G
 S 1 1.00 0.000000000000
     Exponent=  8.7000000000D+00 Coefficients=  1.0000000000D+00
 P 1 1.00 0.000000000000
     Exponent=  5.0000000000D-02 Coefficients=  1.0000000000D+00
 D 1 1.00
     Exponent=  8.2000000000D-01 Coefficients=  1.0000000000D+00
 ****
 Centers:       2
 6-31G
 S 1 1.00 0.000000000000
     Exponent=  1.3700000000D+01 Coefficients=  1.0000000000D+00
 P 1 1.00 0.000000000000
     Exponent=  5.3000000000D-02 Coefficients=  1.0000000000D+00
 D 1 1.00 0.000000000000
     Exponent=  1.0150000000D+00 Coefficients=  1.0000000000D+00
 ****
 Centers:       1     29     30
 6-31G
 S 1 1.00
     Exponent=  1.6000000000D+01 Coefficients=  1.0000000000D+00
 P 1 1.00 0.000000000000
     Exponent=  6.5000000000D-02 Coefficients=  1.0000000000D+00
 D 1 1.00 0.000000000000
     Exponent=  1.1900000000D+00 Coefficients=  1.0000000000D+00
 D 1 1.00 0.000000000000
     Exponent=  1.8000000000D-01 Coefficients=  1.0000000000D+00
 ****
 Centers:       7     28
 6-31G
 S 1 1.00 0.000000000000
     Exponent=  7.5000000000D+00 Coefficients=  1.0000000000D+00
 P 1 1.00 0.000000000000
     Exponent=  4.1000000000D-02 Coefficients=  1.0000000000D+00
 D 1 1.00 0.000000000000
     Exponent=  4.7900000000D-01 Coefficients=  1.0000000000D+00
 ****
 Ernie: Thresh=  0.10000D-02 Tol=  0.10000D-05 Strict=F.
 There are   438 symmetry adapted cartesian basis functions of A   symmetry.
 There are   438 symmetry adapted basis functions of A   symmetry.
   438 basis functions,   722 primitive gaussians,   438 cartesian basis functions
    71 alpha electrons       70 beta electrons
       nuclear repulsion energy      1520.9051610717 Hartrees.
 IExCor= 1009 DFT=T Ex+Corr=PBE1PBE ExCW=0 ScaHFX=  0.250000
 ScaDFX=  0.750000  0.750000  1.000000  1.000000 ScalE2=  1.000000  1.000000
 IRadAn=      5 IRanWt=     -1 IRanGd=            0 ICorTp=0 IEmpDi=  4
 NAtoms=   34 NActive=   34 NUniq=   34 SFac= 1.00D+00 NAtFMM=   60 NAOKFM=F Big=F
 Integral buffers will be    131072 words long.
 Raffenetti 2 integral format.
 Two-electron integral symmetry is turned on.
 Leave Link  301 at Wed Jun 12 15:25:55 2019, MaxMem=  8053063680 cpu:               0.0 elap:               0.1
 (Enter /data2/g16/g16/l302.exe)
 NPDir=0 NMtPBC=     1 NCelOv=     1 NCel=       1 NClECP=     1 NCelD=      1
         NCelK=      1 NCelE2=     1 NClLst=     1 CellRange=     0.0.
 One-electron integrals computed using PRISM.
 One-electron integral symmetry used in STVInt
 NBasis=   438 RedAO= T EigKep=  6.48D-05  NBF=   438
 NBsUse=   438 1.00D-06 EigRej= -1.00D+00 NBFU=   438
 Precomputing XC quadrature grid using
 IXCGrd= 4 IRadAn=           5 IRanWt=          -1 IRanGd=           0 AccXCQ= 0.00D+00.
 Generated NRdTot=       0 NPtTot=           0 NUsed=           0 NTot=          32
 NSgBfM=   433   433   433   433   433 MxSgAt=    34 MxSgA2=    34.
 Leave Link  302 at Wed Jun 12 15:25:55 2019, MaxMem=  8053063680 cpu:               0.0 elap:               0.5
 (Enter /data2/g16/g16/l303.exe)
 DipDrv:  MaxL=1.
 Leave Link  303 at Wed Jun 12 15:25:56 2019, MaxMem=  8053063680 cpu:               0.0 elap:               0.1
 (Enter /data2/g16/g16/l401.exe)
 ExpMin= 4.10D-02 ExpMax= 2.19D+04 ExpMxC= 3.30D+03 IAcc=3 IRadAn=         5 AccDes= 0.00D+00
 Harris functional with IExCor= 1009 and IRadAn=       5 diagonalized for initial guess.
 HarFok:  IExCor= 1009 AccDes= 0.00D+00 IRadAn=         5 IDoV= 1 UseB2=F ITyADJ=14
 ICtDFT=  3500011 ScaDFX=  1.000000  1.000000  1.000000  1.000000
 FoFCou: FMM=F IPFlag=           0 FMFlag=      100000 FMFlg1=           0
         NFxFlg=           0 DoJE=T BraDBF=F KetDBF=T FulRan=T
         wScrn=  0.000000 ICntrl=       500 IOpCl=  0 I1Cent=   200000004 NGrid=           0
         NMat0=    1 NMatS0=      1 NMatT0=    0 NMatD0=    1 NMtDS0=    0 NMtDT0=    0
 Petite list used in FoFCou.
 Harris En= -1467.69873770946    
 JPrj=0 DoOrth=F DoCkMO=F.
 Initial guess <Sx>= 0.0000 <Sy>= 0.0000 <Sz>= 0.5000 <S**2>= 0.7500 S= 0.5000
 Leave Link  401 at Wed Jun 12 15:25:57 2019, MaxMem=  8053063680 cpu:               0.0 elap:               1.6
 (Enter /data2/g16/g16/l502.exe)
 Integral symmetry usage will be decided dynamically.
 UHF open shell SCF:
 Using DIIS extrapolation, IDIIS=  1040.
 NGot=  8053063680 LenX=  8052670277 LenY=  8052477992
 Requested convergence on RMS density matrix=1.00D-08 within 128 cycles.
 Requested convergence on MAX density matrix=1.00D-06.
 Requested convergence on             energy=1.00D-06.
 No special actions if energy rises.
 Fock matrices will be formed incrementally for  20 cycles.

 Cycle   1  Pass 1  IDiag  1:
 FoFJK:  IHMeth= 1 ICntrl=       0 DoSepK=F KAlg= 0 I1Cent=           0 FoldK=F
 IRaf= 840000000 NMat=       1 IRICut=       1 DoRegI=T DoRafI=F ISym2E= 0 IDoP0=0 IntGTp=1.
 FoFCou: FMM=F IPFlag=           0 FMFlag=      100000 FMFlg1=           0
         NFxFlg=           0 DoJE=F BraDBF=F KetDBF=F FulRan=T
         wScrn=  0.000000 ICntrl=         0 IOpCl=  1 I1Cent=           0 NGrid=           0
         NMat0=    1 NMatS0=      1 NMatT0=    0 NMatD0=    1 NMtDS0=    0 NMtDT0=    0
 Symmetry not used in FoFCou.
 E= -1466.93557784034    
 DIIS: error= 2.54D-02 at cycle   1 NSaved=   1.
 NSaved= 1 IEnMin= 1 EnMin= -1466.93557784034     IErMin= 1 ErrMin= 2.54D-02
 ErrMax= 2.54D-02  0.00D+00 EMaxC= 1.00D-01 BMatC= 2.97D+00 BMatP= 2.97D+00
 IDIUse=3 WtCom= 7.46D-01 WtEn= 2.54D-01
 Coeff-Com:  0.100D+01
 Coeff-En:   0.100D+01
 Coeff:      0.100D+01
 Gap=     0.223 Goal=   None    Shift=    0.000
 Gap=     0.366 Goal=   None    Shift=    0.000
 GapD=    0.223 DampG=1.000 DampE=0.500 DampFc=0.5000 IDamp=-1.
 Damping current iteration by 5.00D-01
 RMSDP=4.75D-03 MaxDP=4.12D-01              OVMax= 2.95D-01

 Cycle   2  Pass 1  IDiag  1:
 RMSU=  2.37D-03    CP:  9.92D-01
 E= -1467.06183147153     Delta-E=       -0.126253631188 Rises=F Damp=T
 DIIS: error= 1.03D-02 at cycle   2 NSaved=   2.
 NSaved= 2 IEnMin= 2 EnMin= -1467.06183147153     IErMin= 2 ErrMin= 1.03D-02
 ErrMax= 1.03D-02  0.00D+00 EMaxC= 1.00D-01 BMatC= 5.23D-01 BMatP= 2.97D+00
 IDIUse=3 WtCom= 8.97D-01 WtEn= 1.03D-01
 Coeff-Com:  0.226D+00 0.774D+00
 Coeff-En:   0.395D+00 0.605D+00
 Coeff:      0.244D+00 0.756D+00
 Gap=     0.126 Goal=   None    Shift=    0.000
 Gap=     0.185 Goal=   None    Shift=    0.000
 RMSDP=1.68D-03 MaxDP=1.19D-01 DE=-1.26D-01 OVMax= 2.85D-01

 Cycle   3  Pass 1  IDiag  1:
 RMSU=  1.39D-03    CP:  9.82D-01  6.10D-01
 E= -1467.46600829228     Delta-E=       -0.404176820745 Rises=F Damp=F
 DIIS: error= 8.27D-03 at cycle   3 NSaved=   3.
 NSaved= 3 IEnMin= 3 EnMin= -1467.46600829228     IErMin= 3 ErrMin= 8.27D-03
 ErrMax= 8.27D-03  0.00D+00 EMaxC= 1.00D-01 BMatC= 3.57D-01 BMatP= 5.23D-01
 IDIUse=3 WtCom= 9.17D-01 WtEn= 8.27D-02
 Coeff-Com:  0.531D-01 0.446D+00 0.501D+00
 Coeff-En:   0.000D+00 0.000D+00 0.100D+01
 Coeff:      0.487D-01 0.409D+00 0.542D+00
 Gap=     0.144 Goal=   None    Shift=    0.000
 Gap=     0.223 Goal=   None    Shift=    0.000
 RMSDP=9.31D-04 MaxDP=6.42D-02 DE=-4.04D-01 OVMax= 1.08D-01

 Cycle   4  Pass 1  IDiag  1:
 RMSU=  6.20D-04    CP:  9.87D-01  7.33D-01  5.49D-01
 E= -1467.53882671616     Delta-E=       -0.072818423882 Rises=F Damp=F
 DIIS: error= 2.26D-03 at cycle   4 NSaved=   4.
 NSaved= 4 IEnMin= 4 EnMin= -1467.53882671616     IErMin= 4 ErrMin= 2.26D-03
 ErrMax= 2.26D-03  0.00D+00 EMaxC= 1.00D-01 BMatC= 4.22D-02 BMatP= 3.57D-01
 IDIUse=3 WtCom= 9.77D-01 WtEn= 2.26D-02
 Coeff-Com: -0.131D-01 0.693D-01 0.276D+00 0.668D+00
 Coeff-En:   0.000D+00 0.000D+00 0.883D-01 0.912D+00
 Coeff:     -0.128D-01 0.677D-01 0.272D+00 0.673D+00
 Gap=     0.143 Goal=   None    Shift=    0.000
 Gap=     0.202 Goal=   None    Shift=    0.000
 RMSDP=3.09D-04 MaxDP=1.73D-02 DE=-7.28D-02 OVMax= 3.15D-02

 Cycle   5  Pass 1  IDiag  1:
 RMSU=  2.04D-04    CP:  9.86D-01  7.22D-01  6.55D-01  7.12D-01
 E= -1467.54761252939     Delta-E=       -0.008785813227 Rises=F Damp=F
 DIIS: error= 8.90D-04 at cycle   5 NSaved=   5.
 NSaved= 5 IEnMin= 5 EnMin= -1467.54761252939     IErMin= 5 ErrMin= 8.90D-04
 ErrMax= 8.90D-04  0.00D+00 EMaxC= 1.00D-01 BMatC= 3.99D-03 BMatP= 4.22D-02
 IDIUse=3 WtCom= 9.91D-01 WtEn= 8.90D-03
 Coeff-Com: -0.938D-02 0.167D-01 0.126D+00 0.375D+00 0.492D+00
 Coeff-En:   0.000D+00 0.000D+00 0.000D+00 0.000D+00 0.100D+01
 Coeff:     -0.930D-02 0.166D-01 0.124D+00 0.372D+00 0.496D+00
 Gap=     0.144 Goal=   None    Shift=    0.000
 Gap=     0.205 Goal=   None    Shift=    0.000
 RMSDP=1.10D-04 MaxDP=5.36D-03 DE=-8.79D-03 OVMax= 1.25D-02

 Cycle   6  Pass 1  IDiag  1:
 RMSU=  6.99D-05    CP:  9.85D-01  7.24D-01  6.52D-01  7.68D-01  6.26D-01
 E= -1467.54847727663     Delta-E=       -0.000864747245 Rises=F Damp=F
 DIIS: error= 2.48D-04 at cycle   6 NSaved=   6.
 NSaved= 6 IEnMin= 6 EnMin= -1467.54847727663     IErMin= 6 ErrMin= 2.48D-04
 ErrMax= 2.48D-04  0.00D+00 EMaxC= 1.00D-01 BMatC= 4.05D-04 BMatP= 3.99D-03
 IDIUse=3 WtCom= 9.98D-01 WtEn= 2.48D-03
 Coeff-Com: -0.314D-02 0.172D-02 0.350D-01 0.117D+00 0.272D+00 0.577D+00
 Coeff-En:   0.000D+00 0.000D+00 0.000D+00 0.000D+00 0.435D-01 0.957D+00
 Coeff:     -0.313D-02 0.171D-02 0.349D-01 0.117D+00 0.272D+00 0.578D+00
 Gap=     0.146 Goal=   None    Shift=    0.000
 Gap=     0.205 Goal=   None    Shift=    0.000
 RMSDP=3.59D-05 MaxDP=2.47D-03 DE=-8.65D-04 OVMax= 5.18D-03

 Cycle   7  Pass 1  IDiag  1:
 RMSU=  2.54D-05    CP:  9.85D-01  7.21D-01  6.58D-01  7.70D-01  6.70D-01
                    CP:  6.99D-01
 E= -1467.54857112542     Delta-E=       -0.000093848787 Rises=F Damp=F
 DIIS: error= 1.13D-04 at cycle   7 NSaved=   7.
 NSaved= 7 IEnMin= 7 EnMin= -1467.54857112542     IErMin= 7 ErrMin= 1.13D-04
 ErrMax= 1.13D-04  0.00D+00 EMaxC= 1.00D-01 BMatC= 6.60D-05 BMatP= 4.05D-04
 IDIUse=3 WtCom= 9.99D-01 WtEn= 1.13D-03
 Coeff-Com: -0.599D-04-0.236D-02-0.267D-02-0.115D-03 0.594D-01 0.328D+00
 Coeff-Com:  0.618D+00
 Coeff-En:   0.000D+00 0.000D+00 0.000D+00 0.000D+00 0.000D+00 0.696D-01
 Coeff-En:   0.930D+00
 Coeff:     -0.598D-04-0.236D-02-0.266D-02-0.115D-03 0.593D-01 0.328D+00
 Coeff:      0.618D+00
 Gap=     0.146 Goal=   None    Shift=    0.000
 Gap=     0.206 Goal=   None    Shift=    0.000
 RMSDP=1.50D-05 MaxDP=9.66D-04 DE=-9.38D-05 OVMax= 1.17D-03

 Cycle   8  Pass 1  IDiag  1:
 RMSU=  1.04D-05    CP:  9.85D-01  7.22D-01  6.57D-01  7.70D-01  7.04D-01
                    CP:  7.93D-01  7.98D-01
 E= -1467.54858719600     Delta-E=       -0.000016070580 Rises=F Damp=F
 DIIS: error= 3.64D-05 at cycle   8 NSaved=   8.
 NSaved= 8 IEnMin= 8 EnMin= -1467.54858719600     IErMin= 8 ErrMin= 3.64D-05
 ErrMax= 3.64D-05  0.00D+00 EMaxC= 1.00D-01 BMatC= 4.81D-06 BMatP= 6.60D-05
 IDIUse=1 WtCom= 1.00D+00 WtEn= 0.00D+00
 Coeff-Com:  0.441D-03-0.119D-02-0.527D-02-0.146D-01-0.158D-01 0.660D-01
 Coeff-Com:  0.219D+00 0.752D+00
 Coeff:      0.441D-03-0.119D-02-0.527D-02-0.146D-01-0.158D-01 0.660D-01
 Coeff:      0.219D+00 0.752D+00
 Gap=     0.146 Goal=   None    Shift=    0.000
 Gap=     0.205 Goal=   None    Shift=    0.000
 RMSDP=5.05D-06 MaxDP=6.07D-04 DE=-1.61D-05 OVMax= 1.17D-03

 Cycle   9  Pass 1  IDiag  1:
 RMSU=  4.15D-06    CP:  9.85D-01  7.22D-01  6.57D-01  7.72D-01  7.03D-01
                    CP:  8.23D-01  8.40D-01  9.08D-01
 E= -1467.54858863061     Delta-E=       -0.000001434611 Rises=F Damp=F
 DIIS: error= 2.33D-05 at cycle   9 NSaved=   9.
 NSaved= 9 IEnMin= 9 EnMin= -1467.54858863061     IErMin= 9 ErrMin= 2.33D-05
 ErrMax= 2.33D-05  0.00D+00 EMaxC= 1.00D-01 BMatC= 2.87D-06 BMatP= 4.81D-06
 IDIUse=1 WtCom= 1.00D+00 WtEn= 0.00D+00
 Coeff-Com:  0.341D-03-0.378D-03-0.283D-02-0.958D-02-0.253D-01-0.265D-01
 Coeff-Com: -0.717D-02 0.482D+00 0.590D+00
 Coeff:      0.341D-03-0.378D-03-0.283D-02-0.958D-02-0.253D-01-0.265D-01
 Coeff:     -0.717D-02 0.482D+00 0.590D+00
 Gap=     0.146 Goal=   None    Shift=    0.000
 Gap=     0.206 Goal=   None    Shift=    0.000
 RMSDP=3.28D-06 MaxDP=2.40D-04 DE=-1.43D-06 OVMax= 2.60D-04

 Cycle  10  Pass 1  IDiag  1:
 RMSU=  2.26D-06    CP:  9.85D-01  7.21D-01  6.57D-01  7.72D-01  7.07D-01
                    CP:  8.40D-01  8.78D-01  1.05D+00  8.66D-01
 E= -1467.54858927473     Delta-E=       -0.000000644119 Rises=F Damp=F
 DIIS: error= 9.04D-06 at cycle  10 NSaved=  10.
 NSaved=10 IEnMin=10 EnMin= -1467.54858927473     IErMin=10 ErrMin= 9.04D-06
 ErrMax= 9.04D-06  0.00D+00 EMaxC= 1.00D-01 BMatC= 5.39D-07 BMatP= 2.87D-06
 IDIUse=1 WtCom= 1.00D+00 WtEn= 0.00D+00
 Coeff-Com:  0.107D-03 0.741D-04-0.161D-03-0.167D-02-0.119D-01-0.312D-01
 Coeff-Com: -0.689D-01 0.108D+00 0.355D+00 0.650D+00
 Coeff:      0.107D-03 0.741D-04-0.161D-03-0.167D-02-0.119D-01-0.312D-01
 Coeff:     -0.689D-01 0.108D+00 0.355D+00 0.650D+00
 Gap=     0.146 Goal=   None    Shift=    0.000
 Gap=     0.206 Goal=   None    Shift=    0.000
 RMSDP=1.54D-06 MaxDP=1.28D-04 DE=-6.44D-07 OVMax= 2.74D-04

 Cycle  11  Pass 1  IDiag  1:
 RMSU=  9.26D-07    CP:  9.85D-01  7.21D-01  6.57D-01  7.71D-01  7.07D-01
                    CP:  8.46D-01  8.86D-01  1.13D+00  9.92D-01  8.54D-01
 E= -1467.54858942829     Delta-E=       -0.000000153560 Rises=F Damp=F
 DIIS: error= 5.43D-06 at cycle  11 NSaved=  11.
 NSaved=11 IEnMin=11 EnMin= -1467.54858942829     IErMin=11 ErrMin= 5.43D-06
 ErrMax= 5.43D-06  0.00D+00 EMaxC= 1.00D-01 BMatC= 1.04D-07 BMatP= 5.39D-07
 IDIUse=1 WtCom= 1.00D+00 WtEn= 0.00D+00
 Coeff-Com:  0.299D-05 0.802D-04 0.428D-03 0.829D-03-0.215D-02-0.105D-01
 Coeff-Com: -0.364D-01-0.211D-01 0.704D-01 0.358D+00 0.640D+00
 Coeff:      0.299D-05 0.802D-04 0.428D-03 0.829D-03-0.215D-02-0.105D-01
 Coeff:     -0.364D-01-0.211D-01 0.704D-01 0.358D+00 0.640D+00
 Gap=     0.146 Goal=   None    Shift=    0.000
 Gap=     0.206 Goal=   None    Shift=    0.000
 RMSDP=6.13D-07 MaxDP=5.65D-05 DE=-1.54D-07 OVMax= 1.15D-04

 Cycle  12  Pass 1  IDiag  1:
 RMSU=  4.28D-07    CP:  9.85D-01  7.21D-01  6.57D-01  7.72D-01  7.06D-01
                    CP:  8.48D-01  8.83D-01  1.14D+00  1.04D+00  9.73D-01
                    CP:  8.28D-01
 E= -1467.54858945398     Delta-E=       -0.000000025690 Rises=F Damp=F
 DIIS: error= 3.10D-06 at cycle  12 NSaved=  12.
 NSaved=12 IEnMin=12 EnMin= -1467.54858945398     IErMin=12 ErrMin= 3.10D-06
 ErrMax= 3.10D-06  0.00D+00 EMaxC= 1.00D-01 BMatC= 2.56D-08 BMatP= 1.04D-07
 IDIUse=1 WtCom= 1.00D+00 WtEn= 0.00D+00
 Coeff-Com: -0.130D-04 0.276D-04 0.295D-03 0.789D-03 0.581D-03-0.131D-02
 Coeff-Com: -0.121D-01-0.339D-01-0.269D-01 0.109D+00 0.397D+00 0.567D+00
 Coeff:     -0.130D-04 0.276D-04 0.295D-03 0.789D-03 0.581D-03-0.131D-02
 Coeff:     -0.121D-01-0.339D-01-0.269D-01 0.109D+00 0.397D+00 0.567D+00
 Gap=     0.146 Goal=   None    Shift=    0.000
 Gap=     0.206 Goal=   None    Shift=    0.000
 RMSDP=3.18D-07 MaxDP=2.17D-05 DE=-2.57D-08 OVMax= 2.71D-05

 Cycle  13  Pass 1  IDiag  1:
 RMSU=  2.02D-07    CP:  9.85D-01  7.21D-01  6.57D-01  7.71D-01  7.07D-01
                    CP:  8.49D-01  8.84D-01  1.15D+00  1.07D+00  1.04D+00
                    CP:  9.46D-01  8.35D-01
 E= -1467.54858945976     Delta-E=       -0.000000005785 Rises=F Damp=F
 DIIS: error= 1.02D-06 at cycle  13 NSaved=  13.
 NSaved=13 IEnMin=13 EnMin= -1467.54858945976     IErMin=13 ErrMin= 1.02D-06
 ErrMax= 1.02D-06  0.00D+00 EMaxC= 1.00D-01 BMatC= 4.04D-09 BMatP= 2.56D-08
 IDIUse=1 WtCom= 1.00D+00 WtEn= 0.00D+00
 Coeff-Com: -0.450D-05-0.818D-05 0.581D-04 0.207D-03 0.862D-03 0.264D-02
 Coeff-Com:  0.344D-02-0.964D-02-0.342D-01-0.309D-01 0.591D-01 0.315D+00
 Coeff-Com:  0.694D+00
 Coeff:     -0.450D-05-0.818D-05 0.581D-04 0.207D-03 0.862D-03 0.264D-02
 Coeff:      0.344D-02-0.964D-02-0.342D-01-0.309D-01 0.591D-01 0.315D+00
 Coeff:      0.694D+00
 Gap=     0.146 Goal=   None    Shift=    0.000
 Gap=     0.206 Goal=   None    Shift=    0.000
 RMSDP=1.25D-07 MaxDP=1.27D-05 DE=-5.79D-09 OVMax= 2.08D-05

 Cycle  14  Pass 1  IDiag  1:
 RMSU=  1.03D-07    CP:  9.85D-01  7.21D-01  6.57D-01  7.71D-01  7.07D-01
                    CP:  8.49D-01  8.83D-01  1.15D+00  1.07D+00  1.05D+00
                    CP:  9.76D-01  8.58D-01  8.22D-01
 E= -1467.54858946062     Delta-E=       -0.000000000859 Rises=F Damp=F
 DIIS: error= 5.58D-07 at cycle  14 NSaved=  14.
 NSaved=14 IEnMin=14 EnMin= -1467.54858946062     IErMin=14 ErrMin= 5.58D-07
 ErrMax= 5.58D-07  0.00D+00 EMaxC= 1.00D-01 BMatC= 8.60D-10 BMatP= 4.04D-09
 IDIUse=1 WtCom= 1.00D+00 WtEn= 0.00D+00
 Coeff-Com:  0.306D-06-0.113D-04-0.269D-04-0.428D-04 0.330D-03 0.161D-02
 Coeff-Com:  0.396D-02 0.169D-02-0.131D-01-0.384D-01-0.532D-01 0.277D-01
 Coeff-Com:  0.375D+00 0.694D+00
 Coeff:      0.306D-06-0.113D-04-0.269D-04-0.428D-04 0.330D-03 0.161D-02
 Coeff:      0.396D-02 0.169D-02-0.131D-01-0.384D-01-0.532D-01 0.277D-01
 Coeff:      0.375D+00 0.694D+00
 Gap=     0.146 Goal=   None    Shift=    0.000
 Gap=     0.206 Goal=   None    Shift=    0.000
 RMSDP=7.15D-08 MaxDP=4.71D-06 DE=-8.59D-10 OVMax= 5.86D-06

 Cycle  15  Pass 1  IDiag  1:
 RMSU=  3.41D-08    CP:  9.85D-01  7.21D-01  6.57D-01  7.71D-01  7.06D-01
                    CP:  8.49D-01  8.83D-01  1.15D+00  1.07D+00  1.06D+00
                    CP:  9.98D-01  9.47D-01  9.42D-01  8.11D-01
 E= -1467.54858946106     Delta-E=       -0.000000000442 Rises=F Damp=F
 DIIS: error= 1.33D-07 at cycle  15 NSaved=  15.
 NSaved=15 IEnMin=15 EnMin= -1467.54858946106     IErMin=15 ErrMin= 1.33D-07
 ErrMax= 1.33D-07  0.00D+00 EMaxC= 1.00D-01 BMatC= 5.77D-11 BMatP= 8.60D-10
 IDIUse=1 WtCom= 1.00D+00 WtEn= 0.00D+00
 Coeff-Com:  0.771D-06-0.227D-05-0.195D-04-0.480D-04-0.110D-04 0.213D-03
 Coeff-Com:  0.867D-03 0.217D-02 0.276D-03-0.827D-02-0.268D-01-0.400D-01
 Coeff-Com:  0.419D-01 0.223D+00 0.807D+00
 Coeff:      0.771D-06-0.227D-05-0.195D-04-0.480D-04-0.110D-04 0.213D-03
 Coeff:      0.867D-03 0.217D-02 0.276D-03-0.827D-02-0.268D-01-0.400D-01
 Coeff:      0.419D-01 0.223D+00 0.807D+00
 Gap=     0.146 Goal=   None    Shift=    0.000
 Gap=     0.206 Goal=   None    Shift=    0.000
 RMSDP=2.04D-08 MaxDP=1.21D-06 DE=-4.42D-10 OVMax= 2.16D-06

 Cycle  16  Pass 1  IDiag  1:
 RMSU=  1.41D-08    CP:  9.85D-01  7.21D-01  6.57D-01  7.71D-01  7.06D-01
                    CP:  8.49D-01  8.83D-01  1.15D+00  1.07D+00  1.06D+00
                    CP:  1.00D+00  9.49D-01  9.92D-01  8.91D-01  9.41D-01
 E= -1467.54858946095     Delta-E=        0.000000000114 Rises=F Damp=F
 DIIS: error= 4.79D-08 at cycle  16 NSaved=  16.
 NSaved=16 IEnMin=15 EnMin= -1467.54858946106     IErMin=16 ErrMin= 4.79D-08
 ErrMax= 4.79D-08  0.00D+00 EMaxC= 1.00D-01 BMatC= 1.15D-11 BMatP= 5.77D-11
 IDIUse=1 WtCom= 1.00D+00 WtEn= 0.00D+00
 Coeff-Com:  0.122D-06 0.102D-05-0.369D-05-0.110D-04-0.541D-04-0.154D-03
 Coeff-Com: -0.263D-03 0.603D-03 0.196D-02 0.283D-02-0.259D-02-0.202D-01
 Coeff-Com: -0.373D-01-0.235D-01 0.318D+00 0.761D+00
 Coeff:      0.122D-06 0.102D-05-0.369D-05-0.110D-04-0.541D-04-0.154D-03
 Coeff:     -0.263D-03 0.603D-03 0.196D-02 0.283D-02-0.259D-02-0.202D-01
 Coeff:     -0.373D-01-0.235D-01 0.318D+00 0.761D+00
 Gap=     0.146 Goal=   None    Shift=    0.000
 Gap=     0.206 Goal=   None    Shift=    0.000
 RMSDP=8.79D-09 MaxDP=4.99D-07 DE= 1.14D-10 OVMax= 1.32D-06

 SCF Done:  E(UPBE1PBE) =  -1467.54858946     A.U. after   16 cycles
            NFock= 16  Conv=0.88D-08     -V/T= 2.0052
 <Sx>= 0.0000 <Sy>= 0.0000 <Sz>= 0.5000 <S**2>= 0.7550 S= 0.5025
 <L.S>=  0.00000000000    
 KE= 1.459889879345D+03 PE=-6.497203257894D+03 EE= 2.048859628017D+03
 Annihilation of the first spin contaminant:
 S**2 before annihilation     0.7550,   after     0.7500
 Leave Link  502 at Wed Jun 12 15:28:55 2019, MaxMem=  8053063680 cpu:               0.0 elap:             177.8
 (Enter /data2/g16/g16/l601.exe)
 Copying SCF densities to generalized density rwf, IOpCl= 1 IROHF=0.

 **********************************************************************

            Population analysis using the SCF Density.

 **********************************************************************

 Orbital symmetries:
 Alpha Orbitals:
       Occupied  (A) (A) (A) (A) (A) (A) (A) (A) (A) (A) (A) (A)
                 (A) (A) (A) (A) (A) (A) (A) (A) (A) (A) (A) (A)
                 (A) (A) (A) (A) (A) (A) (A) (A) (A) (A) (A) (A)
                 (A) (A) (A) (A) (A) (A) (A) (A) (A) (A) (A) (A)
                 (A) (A) (A) (A) (A) (A) (A) (A) (A) (A) (A) (A)
                 (A) (A) (A) (A) (A) (A) (A) (A) (A) (A) (A)
       Virtual   (A) (A) (A) (A) (A) (A) (A) (A) (A) (A) (A) (A)
                 (A) (A) (A) (A) (A) (A) (A) (A) (A) (A) (A) (A)
                 (A) (A) (A) (A) (A) (A) (A) (A) (A) (A) (A) (A)
                 (A) (A) (A) (A) (A) (A) (A) (A) (A) (A) (A) (A)
                 (A) (A) (A) (A) (A) (A) (A) (A) (A) (A) (A) (A)
                 (A) (A) (A) (A) (A) (A) (A) (A) (A) (A) (A) (A)
                 (A) (A) (A) (A) (A) (A) (A) (A) (A) (A) (A) (A)
                 (A) (A) (A) (A) (A) (A) (A) (A) (A) (A) (A) (A)
                 (A) (A) (A) (A) (A) (A) (A) (A) (A) (A) (A) (A)
                 (A) (A) (A) (A) (A) (A) (A) (A) (A) (A) (A) (A)
                 (A) (A) (A) (A) (A) (A) (A) (A) (A) (A) (A) (A)
                 (A) (A) (A) (A) (A) (A) (A) (A) (A) (A) (A) (A)
                 (A) (A) (A) (A) (A) (A) (A) (A) (A) (A) (A) (A)
                 (A) (A) (A) (A) (A) (A) (A) (A) (A) (A) (A) (A)
                 (A) (A) (A) (A) (A) (A) (A) (A) (A) (A) (A) (A)
                 (A) (A) (A) (A) (A) (A) (A) (A) (A) (A) (A) (A)
                 (A) (A) (A) (A) (A) (A) (A) (A) (A) (A) (A) (A)
                 (A) (A) (A) (A) (A) (A) (A) (A) (A) (A) (A) (A)
                 (A) (A) (A) (A) (A) (A) (A) (A) (A) (A) (A) (A)
                 (A) (A) (A) (A) (A) (A) (A) (A) (A) (A) (A) (A)
                 (A) (A) (A) (A) (A) (A) (A) (A) (A) (A) (A) (A)
                 (A) (A) (A) (A) (A) (A) (A) (A) (A) (A) (A) (A)
                 (A) (A) (A) (A) (A) (A) (A) (A) (A) (A) (A) (A)
                 (A) (A) (A) (A) (A) (A) (A) (A) (A) (A) (A) (A)
                 (A) (A) (A) (A) (A) (A) (A) (A) (A) (A) (A) (A)
                 (A) (A) (A) (A) (A) (A) (A) (A) (A) (A) (A) (A)
                 (A) (A) (A) (A) (A) (A) (A) (A) (A) (A) (A) (A)
                 (A) (A) (A) (A) (A) (A) (A) (A) (A) (A) (A) (A)
                 (A) (A) (A) (A) (A) (A) (A) (A) (A) (A) (A) (A)
                 (A) (A) (A) (A) (A) (A) (A) (A) (A) (A) (A) (A)
                 (A) (A) (A) (A) (A) (A) (A)
 Beta  Orbitals:
       Occupied  (A) (A) (A) (A) (A) (A) (A) (A) (A) (A) (A) (A)
                 (A) (A) (A) (A) (A) (A) (A) (A) (A) (A) (A) (A)
                 (A) (A) (A) (A) (A) (A) (A) (A) (A) (A) (A) (A)
                 (A) (A) (A) (A) (A) (A) (A) (A) (A) (A) (A) (A)
                 (A) (A) (A) (A) (A) (A) (A) (A) (A) (A) (A) (A)
                 (A) (A) (A) (A) (A) (A) (A) (A) (A) (A)
       Virtual   (A) (A) (A) (A) (A) (A) (A) (A) (A) (A) (A) (A)
                 (A) (A) (A) (A) (A) (A) (A) (A) (A) (A) (A) (A)
                 (A) (A) (A) (A) (A) (A) (A) (A) (A) (A) (A) (A)
                 (A) (A) (A) (A) (A) (A) (A) (A) (A) (A) (A) (A)
                 (A) (A) (A) (A) (A) (A) (A) (A) (A) (A) (A) (A)
                 (A) (A) (A) (A) (A) (A) (A) (A) (A) (A) (A) (A)
                 (A) (A) (A) (A) (A) (A) (A) (A) (A) (A) (A) (A)
                 (A) (A) (A) (A) (A) (A) (A) (A) (A) (A) (A) (A)
                 (A) (A) (A) (A) (A) (A) (A) (A) (A) (A) (A) (A)
                 (A) (A) (A) (A) (A) (A) (A) (A) (A) (A) (A) (A)
                 (A) (A) (A) (A) (A) (A) (A) (A) (A) (A) (A) (A)
                 (A) (A) (A) (A) (A) (A) (A) (A) (A) (A) (A) (A)
                 (A) (A) (A) (A) (A) (A) (A) (A) (A) (A) (A) (A)
                 (A) (A) (A) (A) (A) (A) (A) (A) (A) (A) (A) (A)
                 (A) (A) (A) (A) (A) (A) (A) (A) (A) (A) (A) (A)
                 (A) (A) (A) (A) (A) (A) (A) (A) (A) (A) (A) (A)
                 (A) (A) (A) (A) (A) (A) (A) (A) (A) (A) (A) (A)
                 (A) (A) (A) (A) (A) (A) (A) (A) (A) (A) (A) (A)
                 (A) (A) (A) (A) (A) (A) (A) (A) (A) (A) (A) (A)
                 (A) (A) (A) (A) (A) (A) (A) (A) (A) (A) (A) (A)
                 (A) (A) (A) (A) (A) (A) (A) (A) (A) (A) (A) (A)
                 (A) (A) (A) (A) (A) (A) (A) (A) (A) (A) (A) (A)
                 (A) (A) (A) (A) (A) (A) (A) (A) (A) (A) (A) (A)
                 (A) (A) (A) (A) (A) (A) (A) (A) (A) (A) (A) (A)
                 (A) (A) (A) (A) (A) (A) (A) (A) (A) (A) (A) (A)
                 (A) (A) (A) (A) (A) (A) (A) (A) (A) (A) (A) (A)
                 (A) (A) (A) (A) (A) (A) (A) (A) (A) (A) (A) (A)
                 (A) (A) (A) (A) (A) (A) (A) (A) (A) (A) (A) (A)
                 (A) (A) (A) (A) (A) (A) (A) (A) (A) (A) (A) (A)
                 (A) (A) (A) (A) (A) (A) (A) (A) (A) (A) (A) (A)
                 (A) (A) (A) (A) (A) (A) (A) (A)
 The electronic state is 2-A.
 Alpha  occ. eigenvalues --  -89.28820 -89.08210 -19.24731 -19.24255 -19.22598
 Alpha  occ. eigenvalues --  -14.48504 -10.29822 -10.29714 -10.29136 -10.28725
 Alpha  occ. eigenvalues --  -10.26166 -10.24899 -10.23190 -10.22721 -10.22664
 Alpha  occ. eigenvalues --  -10.22439  -8.22135  -8.04453  -6.15856  -6.15815
 Alpha  occ. eigenvalues --   -6.15700  -5.98295  -5.97915  -5.97194  -1.14671
 Alpha  occ. eigenvalues --   -1.13675  -1.04436  -0.93311  -0.85923  -0.84051
 Alpha  occ. eigenvalues --   -0.82275  -0.77264  -0.74911  -0.72058  -0.71222
 Alpha  occ. eigenvalues --   -0.70615  -0.64493  -0.62472  -0.59030  -0.56409
 Alpha  occ. eigenvalues --   -0.53125  -0.51823  -0.51301  -0.50766  -0.50256
 Alpha  occ. eigenvalues --   -0.48494  -0.47424  -0.46376  -0.46171  -0.45204
 Alpha  occ. eigenvalues --   -0.44659  -0.44021  -0.42728  -0.42413  -0.41640
 Alpha  occ. eigenvalues --   -0.40528  -0.40045  -0.39174  -0.38915  -0.36487
 Alpha  occ. eigenvalues --   -0.36397  -0.36134  -0.35737  -0.35648  -0.34595
 Alpha  occ. eigenvalues --   -0.33582  -0.31772  -0.28356  -0.27188  -0.26921
 Alpha  occ. eigenvalues --   -0.20020
 Alpha virt. eigenvalues --   -0.05431  -0.02495   0.00438   0.01051   0.02617
 Alpha virt. eigenvalues --    0.03427   0.03741   0.04542   0.04784   0.05002
 Alpha virt. eigenvalues --    0.05453   0.05829   0.06168   0.06282   0.06850
 Alpha virt. eigenvalues --    0.07844   0.08238   0.08329   0.09012   0.09252
 Alpha virt. eigenvalues --    0.09394   0.09731   0.10282   0.10833   0.10967
 Alpha virt. eigenvalues --    0.11368   0.11876   0.12583   0.13007   0.13686
 Alpha virt. eigenvalues --    0.14032   0.14336   0.14800   0.15127   0.15460
 Alpha virt. eigenvalues --    0.16009   0.16542   0.16602   0.17093   0.17655
 Alpha virt. eigenvalues --    0.18504   0.18747   0.19261   0.19497   0.19678
 Alpha virt. eigenvalues --    0.20026   0.20925   0.21320   0.21877   0.22444
 Alpha virt. eigenvalues --    0.23155   0.23465   0.24193   0.24368   0.25234
 Alpha virt. eigenvalues --    0.25966   0.26300   0.26595   0.27157   0.27646
 Alpha virt. eigenvalues --    0.28055   0.28574   0.28917   0.29339   0.29697
 Alpha virt. eigenvalues --    0.30301   0.30607   0.31415   0.31518   0.32000
 Alpha virt. eigenvalues --    0.32651   0.32928   0.33712   0.34314   0.34988
 Alpha virt. eigenvalues --    0.35623   0.36797   0.37802   0.37928   0.40585
 Alpha virt. eigenvalues --    0.41616   0.42138   0.42294   0.43013   0.44505
 Alpha virt. eigenvalues --    0.46204   0.47276   0.47574   0.48105   0.50007
 Alpha virt. eigenvalues --    0.50610   0.51186   0.51855   0.52109   0.52301
 Alpha virt. eigenvalues --    0.52949   0.53737   0.54364   0.55457   0.56172
 Alpha virt. eigenvalues --    0.56908   0.57490   0.58310   0.59837   0.60299
 Alpha virt. eigenvalues --    0.60598   0.61797   0.62560   0.63253   0.63966
 Alpha virt. eigenvalues --    0.64479   0.65009   0.65514   0.65675   0.66720
 Alpha virt. eigenvalues --    0.68094   0.68321   0.68571   0.70063   0.70984
 Alpha virt. eigenvalues --    0.72107   0.72664   0.73005   0.73352   0.74183
 Alpha virt. eigenvalues --    0.74903   0.75763   0.76472   0.77475   0.78553
 Alpha virt. eigenvalues --    0.78990   0.79696   0.80667   0.81838   0.82292
 Alpha virt. eigenvalues --    0.82814   0.83265   0.83900   0.84760   0.85530
 Alpha virt. eigenvalues --    0.85991   0.86984   0.88042   0.88652   0.88763
 Alpha virt. eigenvalues --    0.89081   0.89736   0.90356   0.91090   0.91771
 Alpha virt. eigenvalues --    0.92045   0.92895   0.94369   0.95041   0.95171
 Alpha virt. eigenvalues --    0.95924   0.97719   0.97800   0.98242   0.99166
 Alpha virt. eigenvalues --    1.00088   1.01585   1.02171   1.03387   1.04171
 Alpha virt. eigenvalues --    1.04866   1.07509   1.08602   1.09102   1.11441
 Alpha virt. eigenvalues --    1.12553   1.14368   1.15025   1.15908   1.17195
 Alpha virt. eigenvalues --    1.18572   1.20280   1.22229   1.22445   1.23631
 Alpha virt. eigenvalues --    1.25674   1.28613   1.30056   1.30692   1.32103
 Alpha virt. eigenvalues --    1.36127   1.37928   1.39540   1.40105   1.41366
 Alpha virt. eigenvalues --    1.44312   1.45212   1.45856   1.48002   1.48930
 Alpha virt. eigenvalues --    1.49856   1.50094   1.50779   1.52870   1.55972
 Alpha virt. eigenvalues --    1.57289   1.59351   1.62689   1.63084   1.63387
 Alpha virt. eigenvalues --    1.65576   1.65819   1.66632   1.68107   1.68514
 Alpha virt. eigenvalues --    1.69054   1.71444   1.72258   1.73135   1.74560
 Alpha virt. eigenvalues --    1.75293   1.76493   1.77869   1.78933   1.79401
 Alpha virt. eigenvalues --    1.79670   1.80152   1.80775   1.82112   1.82588
 Alpha virt. eigenvalues --    1.84032   1.85045   1.85329   1.86275   1.86458
 Alpha virt. eigenvalues --    1.87786   1.89437   1.91988   1.92397   1.93883
 Alpha virt. eigenvalues --    1.95163   1.95923   1.97940   1.98288   1.99325
 Alpha virt. eigenvalues --    1.99788   2.01703   2.03188   2.03989   2.05587
 Alpha virt. eigenvalues --    2.06615   2.07332   2.10199   2.11807   2.13538
 Alpha virt. eigenvalues --    2.14722   2.16179   2.17027   2.25052   2.25618
 Alpha virt. eigenvalues --    2.27860   2.28179   2.30967   2.33149   2.34436
 Alpha virt. eigenvalues --    2.36449   2.38739   2.39426   2.40247   2.40997
 Alpha virt. eigenvalues --    2.43152   2.44727   2.47232   2.48751   2.49622
 Alpha virt. eigenvalues --    2.53811   2.54461   2.55020   2.58006   2.58641
 Alpha virt. eigenvalues --    2.60663   2.63739   2.65242   2.66121   2.67578
 Alpha virt. eigenvalues --    2.70665   2.75610   2.75908   2.76980   2.80363
 Alpha virt. eigenvalues --    2.82528   2.82681   2.83127   2.83193   2.84146
 Alpha virt. eigenvalues --    2.84231   2.85294   2.86346   2.87009   2.87723
 Alpha virt. eigenvalues --    2.88224   2.89669   2.91194   2.93027   2.93640
 Alpha virt. eigenvalues --    2.94408   2.95647   2.96790   2.98009   2.98441
 Alpha virt. eigenvalues --    2.99295   3.02957   3.03706   3.03972   3.06528
 Alpha virt. eigenvalues --    3.08172   3.15646   3.18246   3.19463   3.20639
 Alpha virt. eigenvalues --    3.26185   3.28184   3.29545   3.31136   3.31787
 Alpha virt. eigenvalues --    3.34591   3.35624   3.37173   3.38438   3.41020
 Alpha virt. eigenvalues --    3.42202   3.43591   3.44897   3.47863   3.50194
 Alpha virt. eigenvalues --    3.53547   3.56919   3.60067   3.63601   3.64849
 Alpha virt. eigenvalues --    3.76674   3.94768   4.47115   4.57100   4.62140
 Alpha virt. eigenvalues --    4.64166   4.72311   4.73816   4.74607   4.86624
 Alpha virt. eigenvalues --    4.91322   5.03133   5.44690   5.81696   5.84380
 Alpha virt. eigenvalues --    6.08282  22.21325  22.63243  58.49139  58.49228
 Alpha virt. eigenvalues --   58.50364  58.50629  58.50868  58.55719  58.56189
 Alpha virt. eigenvalues --   58.56236  58.56513  58.56778  95.61957 106.32208
 Alpha virt. eigenvalues --  106.33234 106.39202
  Beta  occ. eigenvalues --  -89.28820 -89.08210 -19.24731 -19.24255 -19.21171
  Beta  occ. eigenvalues --  -14.47307 -10.29824 -10.29714 -10.29203 -10.28791
  Beta  occ. eigenvalues --  -10.26165 -10.24896 -10.23141 -10.22669 -10.22618
  Beta  occ. eigenvalues --  -10.22385  -8.22135  -8.04453  -6.15856  -6.15815
  Beta  occ. eigenvalues --   -6.15700  -5.98295  -5.97915  -5.97194  -1.14671
  Beta  occ. eigenvalues --   -1.11042  -1.04436  -0.92369  -0.85733  -0.83948
  Beta  occ. eigenvalues --   -0.82140  -0.77069  -0.73844  -0.71815  -0.71095
  Beta  occ. eigenvalues --   -0.70145  -0.64440  -0.62343  -0.58652  -0.55896
  Beta  occ. eigenvalues --   -0.53038  -0.51814  -0.51022  -0.50419  -0.48388
  Beta  occ. eigenvalues --   -0.47515  -0.47173  -0.46366  -0.46104  -0.44963
  Beta  occ. eigenvalues --   -0.44311  -0.43884  -0.42507  -0.41605  -0.41148
  Beta  occ. eigenvalues --   -0.40217  -0.40012  -0.38824  -0.37664  -0.36344
  Beta  occ. eigenvalues --   -0.36095  -0.35704  -0.35659  -0.34567  -0.33580
  Beta  occ. eigenvalues --   -0.32796  -0.31769  -0.28266  -0.26742  -0.25995
  Beta virt. eigenvalues --   -0.05433  -0.03677  -0.02448   0.00449   0.01057
  Beta virt. eigenvalues --    0.02638   0.03449   0.03780   0.04577   0.04874
  Beta virt. eigenvalues --    0.05037   0.05480   0.05875   0.06197   0.06311
  Beta virt. eigenvalues --    0.06923   0.07862   0.08279   0.08438   0.09042
  Beta virt. eigenvalues --    0.09348   0.09431   0.09806   0.10331   0.10894
  Beta virt. eigenvalues --    0.10981   0.11408   0.11969   0.12691   0.13100
  Beta virt. eigenvalues --    0.13743   0.14083   0.14386   0.14921   0.15221
  Beta virt. eigenvalues --    0.15708   0.16095   0.16600   0.16928   0.17269
  Beta virt. eigenvalues --    0.17767   0.18545   0.18893   0.19336   0.19774
  Beta virt. eigenvalues --    0.19800   0.20200   0.21024   0.21449   0.21970
  Beta virt. eigenvalues --    0.22546   0.23323   0.23512   0.24321   0.24740
  Beta virt. eigenvalues --    0.25417   0.26122   0.26379   0.26679   0.27205
  Beta virt. eigenvalues --    0.27708   0.28134   0.28734   0.29093   0.29416
  Beta virt. eigenvalues --    0.30090   0.30586   0.30733   0.31546   0.31873
  Beta virt. eigenvalues --    0.32080   0.32810   0.33157   0.33911   0.34378
  Beta virt. eigenvalues --    0.35077   0.35816   0.36827   0.37881   0.38010
  Beta virt. eigenvalues --    0.40613   0.41659   0.42201   0.42717   0.43130
  Beta virt. eigenvalues --    0.44683   0.46260   0.47367   0.47608   0.48162
  Beta virt. eigenvalues --    0.50183   0.50666   0.51397   0.51939   0.52272
  Beta virt. eigenvalues --    0.52354   0.52986   0.53954   0.54398   0.55514
  Beta virt. eigenvalues --    0.56259   0.56973   0.57563   0.58445   0.59991
  Beta virt. eigenvalues --    0.60416   0.60735   0.61846   0.62601   0.63431
  Beta virt. eigenvalues --    0.64037   0.64556   0.65091   0.65633   0.65954
  Beta virt. eigenvalues --    0.66798   0.68169   0.68519   0.68735   0.70264
  Beta virt. eigenvalues --    0.71256   0.72216   0.72766   0.73064   0.73434
  Beta virt. eigenvalues --    0.74385   0.74933   0.75892   0.76541   0.77519
  Beta virt. eigenvalues --    0.78772   0.79035   0.79925   0.80768   0.82041
  Beta virt. eigenvalues --    0.82415   0.82857   0.83331   0.84007   0.84842
  Beta virt. eigenvalues --    0.85575   0.86111   0.87089   0.88067   0.88722
  Beta virt. eigenvalues --    0.88802   0.89121   0.89789   0.90426   0.91154
  Beta virt. eigenvalues --    0.91845   0.92171   0.93165   0.94500   0.95132
  Beta virt. eigenvalues --    0.95249   0.96119   0.97772   0.98122   0.98996
  Beta virt. eigenvalues --    0.99540   1.00370   1.01883   1.02205   1.03487
  Beta virt. eigenvalues --    1.04277   1.04990   1.07567   1.08662   1.09434
  Beta virt. eigenvalues --    1.11776   1.12580   1.14428   1.15096   1.16017
  Beta virt. eigenvalues --    1.17441   1.18828   1.20718   1.22609   1.23117
  Beta virt. eigenvalues --    1.24445   1.26155   1.28998   1.30418   1.31616
  Beta virt. eigenvalues --    1.32343   1.36538   1.38219   1.39589   1.40167
  Beta virt. eigenvalues --    1.41451   1.44338   1.45411   1.46146   1.48309
  Beta virt. eigenvalues --    1.48980   1.49934   1.50137   1.50843   1.52909
  Beta virt. eigenvalues --    1.56155   1.57359   1.59475   1.62704   1.63104
  Beta virt. eigenvalues --    1.63401   1.65936   1.66048   1.67106   1.68227
  Beta virt. eigenvalues --    1.68541   1.69406   1.71552   1.72338   1.73237
  Beta virt. eigenvalues --    1.74632   1.75357   1.76573   1.77954   1.78987
  Beta virt. eigenvalues --    1.79449   1.79748   1.80239   1.80800   1.82181
  Beta virt. eigenvalues --    1.82713   1.84144   1.85086   1.85443   1.86426
  Beta virt. eigenvalues --    1.86569   1.87948   1.89540   1.92331   1.92572
  Beta virt. eigenvalues --    1.93932   1.95172   1.95941   1.98053   1.98464
  Beta virt. eigenvalues --    1.99657   2.00015   2.02077   2.03493   2.04161
  Beta virt. eigenvalues --    2.06174   2.06934   2.07545   2.10501   2.12444
  Beta virt. eigenvalues --    2.13638   2.14960   2.16228   2.17462   2.25659
  Beta virt. eigenvalues --    2.26014   2.28160   2.29148   2.31041   2.33218
  Beta virt. eigenvalues --    2.34591   2.36544   2.38742   2.39428   2.40370
  Beta virt. eigenvalues --    2.41376   2.43414   2.44822   2.47392   2.49284
  Beta virt. eigenvalues --    2.49745   2.53908   2.55199   2.55792   2.58439
  Beta virt. eigenvalues --    2.58750   2.60707   2.63791   2.65366   2.66172
  Beta virt. eigenvalues --    2.68526   2.70853   2.75706   2.76179   2.77291
  Beta virt. eigenvalues --    2.80562   2.82545   2.82726   2.83200   2.84023
  Beta virt. eigenvalues --    2.84185   2.85313   2.85947   2.86931   2.87043
  Beta virt. eigenvalues --    2.87955   2.89422   2.89868   2.91467   2.93079
  Beta virt. eigenvalues --    2.94534   2.95038   2.96223   2.96959   2.98162
  Beta virt. eigenvalues --    2.98505   2.99791   3.03143   3.04171   3.04525
  Beta virt. eigenvalues --    3.06618   3.08283   3.15970   3.19162   3.19638
  Beta virt. eigenvalues --    3.24264   3.26194   3.28187   3.29879   3.31175
  Beta virt. eigenvalues --    3.31894   3.34632   3.35634   3.37221   3.38462
  Beta virt. eigenvalues --    3.41090   3.42262   3.43741   3.44946   3.47963
  Beta virt. eigenvalues --    3.50343   3.53725   3.56945   3.60114   3.63707
  Beta virt. eigenvalues --    3.64877   3.76694   3.96468   4.47185   4.57160
  Beta virt. eigenvalues --    4.62140   4.64284   4.72388   4.73920   4.74711
  Beta virt. eigenvalues --    4.86750   4.91361   5.03134   5.46585   5.81708
  Beta virt. eigenvalues --    5.84381   6.10779  22.21326  22.63243  58.49137
  Beta virt. eigenvalues --   58.49228  58.50347  58.50588  58.50812  58.55762
  Beta virt. eigenvalues --   58.56235  58.56279  58.56561  58.56780  95.62890
  Beta virt. eigenvalues --  106.32210 106.33234 106.40339
          Condensed to atoms (all electrons):
               1          2          3          4          5          6
     1  O    8.674650  -0.023668  -0.088312  -0.001890   0.038367  -0.003644
     2  N   -0.023668   7.378966   0.082330  -0.058477  -0.021676   0.016285
     3  C   -0.088312   0.082330   5.446665   0.244422  -0.110169   0.018463
     4  C   -0.001890  -0.058477   0.244422   5.177531   0.614374  -0.031837
     5  C    0.038367  -0.021676  -0.110169   0.614374   5.419346   0.192524
     6  C   -0.003644   0.016285   0.018463  -0.031837   0.192524   5.225532
     7  S   -0.000788   0.005314   0.000058  -0.002818  -0.132351   0.258974
     8  C   -0.071462   0.054407  -0.137953  -0.064927   0.205231  -0.076594
     9  C   -0.010899  -0.090550   0.006801  -0.002349  -0.069633   0.009954
    10  C   -0.010155  -0.087010   0.018032  -0.011000  -0.074154   0.004408
    11  C   -0.006589  -0.106637   0.307385  -0.043347  -0.005879  -0.002608
    12  C   -0.001692  -0.091274   0.312564  -0.075522  -0.007136  -0.001472
    13  H   -0.000597   0.002810  -0.035267   0.405647  -0.049248  -0.001736
    14  H    0.000066  -0.002432   0.003501   0.023988  -0.083870   0.420350
    15  H    0.000112  -0.002678  -0.000299   0.004931  -0.063194   0.407648
    16  H   -0.001155   0.017652  -0.003166   0.003247  -0.001006  -0.000507
    17  H   -0.000678   0.005629  -0.000405   0.001153  -0.005653   0.002277
    18  H    0.007585  -0.022565   0.001291  -0.000917   0.008375  -0.001026
    19  H    0.008265  -0.027447  -0.001356  -0.001513   0.020381  -0.001446
    20  H   -0.000462   0.005422  -0.000724   0.001420  -0.003961   0.002559
    21  H   -0.000618   0.004305   0.000834   0.001048  -0.000275   0.003076
    22  H   -0.000381   0.002038  -0.057121  -0.000847   0.008585  -0.000731
    23  H   -0.000449   0.005941  -0.047438   0.002564   0.001203  -0.000044
    24  H    0.006694  -0.024739  -0.032410   0.015042  -0.002599   0.000090
    25  H    0.008106  -0.029480  -0.027514   0.016069  -0.001032   0.000024
    26  H   -0.000880   0.010706  -0.048452  -0.001792  -0.000152  -0.000021
    27  H   -0.000558   0.013793  -0.061793  -0.005122   0.004425  -0.000598
    28  S   -0.000021  -0.002127   0.000595  -0.030643  -0.007911  -0.004032
    29  O    0.000041   0.006203  -0.005162   0.028796   0.012629   0.005062
    30  O    0.000107  -0.000245  -0.007252   0.025323   0.021614  -0.023998
    31  C    0.000003   0.000209  -0.000735   0.002847   0.004809  -0.000413
    32  H    0.000000  -0.000009   0.000031  -0.000100  -0.000495   0.000208
    33  H   -0.000000   0.000006   0.000014  -0.000023   0.000131   0.000183
    34  H    0.000000  -0.000003  -0.000021  -0.000447  -0.000010  -0.000403
               7          8          9         10         11         12
     1  O   -0.000788  -0.071462  -0.010899  -0.010155  -0.006589  -0.001692
     2  N    0.005314   0.054407  -0.090550  -0.087010  -0.106637  -0.091274
     3  C    0.000058  -0.137953   0.006801   0.018032   0.307385   0.312564
     4  C   -0.002818  -0.064927  -0.002349  -0.011000  -0.043347  -0.075522
     5  C   -0.132351   0.205231  -0.069633  -0.074154  -0.005879  -0.007136
     6  C    0.258974  -0.076594   0.009954   0.004408  -0.002608  -0.001472
     7  S   15.872856  -0.002269   0.002694  -0.000638  -0.000212   0.000944
     8  C   -0.002269   5.445255   0.326531   0.322515   0.015106   0.021700
     9  C    0.002694   0.326531   5.012356  -0.085310  -0.005302   0.004970
    10  C   -0.000638   0.322515  -0.085310   5.033205   0.005268  -0.006274
    11  C   -0.000212   0.015106  -0.005302   0.005268   5.031125  -0.081160
    12  C    0.000944   0.021700   0.004970  -0.006274  -0.081160   5.024241
    13  H    0.000008   0.012753  -0.000905  -0.001555  -0.000997   0.003113
    14  H   -0.041817   0.003008  -0.000006  -0.001844  -0.000189  -0.000045
    15  H   -0.042107   0.007985  -0.001056   0.005848   0.000305  -0.000061
    16  H    0.000619  -0.065278   0.412725   0.009204   0.000148  -0.001317
    17  H    0.000945  -0.033693   0.398984  -0.004213   0.000163  -0.000168
    18  H    0.000209  -0.035024   0.411636  -0.004169   0.000006  -0.000239
    19  H    0.000090  -0.040660  -0.002443   0.416498  -0.000140   0.000041
    20  H   -0.000379  -0.038607  -0.003769   0.401840  -0.000065   0.000138
    21  H   -0.000965  -0.056446   0.008436   0.409595  -0.001049  -0.000045
    22  H    0.000002  -0.002389   0.000096  -0.001272   0.411899   0.008582
    23  H    0.000004  -0.001046   0.000132  -0.000063   0.406520  -0.002520
    24  H   -0.000014   0.000929  -0.000103  -0.000120   0.412215  -0.003858
    25  H   -0.000046  -0.002805  -0.000134   0.000064  -0.004284   0.409289
    26  H   -0.000004  -0.001022  -0.000149   0.000203  -0.002478   0.406157
    27  H   -0.000014   0.000044  -0.001326   0.000076   0.009067   0.412108
    28  S    0.310518   0.004297  -0.003727  -0.000182  -0.000734   0.002312
    29  O   -0.074667  -0.009265  -0.000626   0.000143   0.000258  -0.006991
    30  O   -0.082630  -0.004329   0.000745   0.000017   0.001024   0.000647
    31  C   -0.052689  -0.001258   0.000257   0.000050   0.000052  -0.000214
    32  H   -0.000790   0.000150  -0.000074  -0.000002  -0.000000  -0.000008
    33  H    0.001553  -0.000040  -0.000001   0.000001  -0.000000  -0.000006
    34  H    0.002444   0.000122   0.000002  -0.000001  -0.000000   0.000010
              13         14         15         16         17         18
     1  O   -0.000597   0.000066   0.000112  -0.001155  -0.000678   0.007585
     2  N    0.002810  -0.002432  -0.002678   0.017652   0.005629  -0.022565
     3  C   -0.035267   0.003501  -0.000299  -0.003166  -0.000405   0.001291
     4  C    0.405647   0.023988   0.004931   0.003247   0.001153  -0.000917
     5  C   -0.049248  -0.083870  -0.063194  -0.001006  -0.005653   0.008375
     6  C   -0.001736   0.420350   0.407648  -0.000507   0.002277  -0.001026
     7  S    0.000008  -0.041817  -0.042107   0.000619   0.000945   0.000209
     8  C    0.012753   0.003008   0.007985  -0.065278  -0.033693  -0.035024
     9  C   -0.000905  -0.000006  -0.001056   0.412725   0.398984   0.411636
    10  C   -0.001555  -0.001844   0.005848   0.009204  -0.004213  -0.004169
    11  C   -0.000997  -0.000189   0.000305   0.000148   0.000163   0.000006
    12  C    0.003113  -0.000045  -0.000061  -0.001317  -0.000168  -0.000239
    13  H    0.508799   0.002245  -0.000017  -0.000032  -0.000001   0.000004
    14  H    0.002245   0.490299  -0.014265  -0.000039  -0.000016   0.000001
    15  H   -0.000017  -0.014265   0.530579   0.000092  -0.000051   0.000013
    16  H   -0.000032  -0.000039   0.000092   0.537157  -0.019786  -0.015367
    17  H   -0.000001  -0.000016  -0.000051  -0.019786   0.566159  -0.020836
    18  H    0.000004   0.000001   0.000013  -0.015367  -0.020836   0.527811
    19  H    0.000005   0.000004  -0.000034  -0.000013  -0.000259   0.001901
    20  H    0.000002   0.000014  -0.000126   0.000083   0.001226  -0.000159
    21  H   -0.000019   0.000000  -0.000198  -0.000139   0.000084   0.000036
    22  H    0.000148   0.000004   0.000001  -0.000001  -0.000000  -0.000000
    23  H    0.000579   0.000001   0.000000   0.000000  -0.000000   0.000000
    24  H    0.000004   0.000000  -0.000000  -0.000000   0.000000  -0.000002
    25  H   -0.000032  -0.000000   0.000000   0.000005   0.000000  -0.000007
    26  H    0.000118  -0.000001   0.000000   0.000008  -0.000000  -0.000000
    27  H   -0.000174  -0.000002   0.000000   0.000249   0.000009  -0.000001
    28  S    0.003094  -0.013437   0.003059  -0.000940  -0.000923   0.000355
    29  O   -0.000334   0.000962  -0.000799  -0.000028   0.000165   0.000004
    30  O   -0.000863   0.011347  -0.001302   0.000079   0.000025  -0.000010
    31  C   -0.000102   0.000426  -0.000072   0.000034   0.000047  -0.000002
    32  H    0.000000   0.000005  -0.000000  -0.000000  -0.000000   0.000000
    33  H    0.000000  -0.000011   0.000000   0.000000   0.000000  -0.000000
    34  H    0.000001   0.000027  -0.000000  -0.000000  -0.000000   0.000000
              19         20         21         22         23         24
     1  O    0.008265  -0.000462  -0.000618  -0.000381  -0.000449   0.006694
     2  N   -0.027447   0.005422   0.004305   0.002038   0.005941  -0.024739
     3  C   -0.001356  -0.000724   0.000834  -0.057121  -0.047438  -0.032410
     4  C   -0.001513   0.001420   0.001048  -0.000847   0.002564   0.015042
[...]
    11  C    0.042928   0.021440
    12  C    0.056040   0.022418
    28  S    0.891408  -0.000075
    29  O   -0.510961   0.000023
    30  O   -0.570494   0.000041
    31  C    0.150832  -0.000005
 Electronic spatial extent (au):  <R**2>=           4771.9500
 Charge=             -0.0000 electrons
 Dipole moment (field-independent basis, Debye):
    X=              4.2395    Y=              1.8543    Z=             -2.0717  Tot=              5.0699
 Quadrupole moment (field-independent basis, Debye-Ang):
   XX=           -108.1320   YY=           -109.0582   ZZ=           -115.9763
   XY=              5.6690   XZ=              6.4613   YZ=             -0.6225
 Traceless Quadrupole moment (field-independent basis, Debye-Ang):
   XX=              2.9235   YY=              1.9973   ZZ=             -4.9208
   XY=              5.6690   XZ=              6.4613   YZ=             -0.6225
 Octapole moment (field-independent basis, Debye-Ang**2):
  XXX=            189.5621  YYY=             -3.8303  ZZZ=              0.3847  XYY=            -14.2035
  XXY=             -7.9586  XXZ=             -8.5924  XZZ=             -0.7577  YZZ=              6.0297
  YYZ=             -2.3455  XYZ=              0.5385
 Hexadecapole moment (field-independent basis, Debye-Ang**3):
 XXXX=          -3984.7521 YYYY=          -1374.0689 ZZZZ=           -670.7512 XXXY=            -14.8705
 XXXZ=            121.5925 YYYX=            -15.7057 YYYZ=              0.8912 ZZZX=            -11.8507
 ZZZY=             -1.9263 XXYY=           -937.0438 XXZZ=           -856.1269 YYZZ=           -348.2979
 XXYZ=             -4.2967 YYXZ=             -4.4144 ZZXY=             14.8369
 N-N= 1.520905161072D+03 E-N=-6.497203241019D+03  KE= 1.459889879345D+03
                          Isotropic Fermi Contact Couplings
        Atom                 a.u.       MegaHertz       Gauss      10(-4) cm-1
     1  O(17)              0.08634     -52.34001     -18.67622     -17.45875
     2  N(14)              0.10485      33.87900      12.08887      11.30082
     3  C(13)             -0.01530     -17.20113      -6.13779      -5.73768
     4  C(13)              0.00002       0.01796       0.00641       0.00599
     5  C(13)             -0.00050      -0.56295      -0.20087      -0.18778
     6  C(13)             -0.00062      -0.69599      -0.24835      -0.23216
     7  S(33)              0.00002       0.00675       0.00241       0.00225
     8  C(13)             -0.01535     -17.26037      -6.15893      -5.75744
     9  C(13)              0.01699      19.10230       6.81618       6.37184
    10  C(13)              0.01400      15.73900       5.61607       5.24997
    11  C(13)              0.01284      14.43809       5.15187       4.81603
    12  C(13)              0.01804      20.27641       7.23513       6.76348
    13  H(1)              -0.00031      -1.38262      -0.49335      -0.46119
    14  H(1)              -0.00003      -0.15342      -0.05475      -0.05118
    15  H(1)               0.00005       0.23255       0.08298       0.07757
    16  H(1)              -0.00034      -1.52110      -0.54277      -0.50738
    17  H(1)               0.00043       1.92294       0.68615       0.64142
    18  H(1)              -0.00051      -2.27247      -0.81087      -0.75801
    19  H(1)              -0.00051      -2.29646      -0.81943      -0.76602
    20  H(1)               0.00025       1.13909       0.40645       0.37996
    21  H(1)              -0.00039      -1.73939      -0.62066      -0.58020
    22  H(1)              -0.00039      -1.72665      -0.61611      -0.57595
    23  H(1)               0.00020       0.91511       0.32653       0.30525
    24  H(1)              -0.00048      -2.15032      -0.76729      -0.71727
    25  H(1)              -0.00050      -2.21879      -0.79172      -0.74011
    26  H(1)               0.00049       2.17168       0.77491       0.72440
    27  H(1)              -0.00035      -1.54619      -0.55172      -0.51575
    28  S(33)             -0.00001      -0.00385      -0.00137      -0.00128
    29  O(17)             -0.00001       0.00502       0.00179       0.00167
    30  O(17)             -0.00002       0.01013       0.00361       0.00338
    31  C(13)              0.00001       0.01172       0.00418       0.00391
    32  H(1)              -0.00000      -0.00027      -0.00010      -0.00009
    33  H(1)               0.00000       0.00607       0.00217       0.00203
    34  H(1)               0.00000       0.00018       0.00006       0.00006
 --------------------------------------------------------
       Center         ----  Spin Dipole Couplings  ----
                      3XX-RR        3YY-RR        3ZZ-RR
 --------------------------------------------------------
     1   Atom       -0.562809     -0.905231      1.468041
     2   Atom       -0.290757     -0.569038      0.859795
     3   Atom       -0.007200      0.010299     -0.003099
     4   Atom        0.006684     -0.005464     -0.001220
     5   Atom        0.009521     -0.006965     -0.002556
     6   Atom        0.002026     -0.001290     -0.000736
     7   Atom        0.003263     -0.001519     -0.001744
     8   Atom        0.000449      0.005377     -0.005827
     9   Atom       -0.010735      0.001779      0.008956
    10   Atom       -0.007455      0.017579     -0.010124
    11   Atom        0.002074      0.000570     -0.002645
    12   Atom       -0.016805      0.018439     -0.001634
    13   Atom        0.001643     -0.001177     -0.000466
    14   Atom        0.001419     -0.001232     -0.000187
    15   Atom        0.001158     -0.000679     -0.000479
    16   Atom        0.003411     -0.003317     -0.000094
    17   Atom        0.000392      0.002149     -0.002541
    18   Atom       -0.002272      0.003964     -0.001692
    19   Atom       -0.004963      0.010268     -0.005305
    20   Atom       -0.001166      0.003922     -0.002756
    21   Atom       -0.005408      0.000431      0.004976
    22   Atom       -0.005235     -0.002180      0.007415
    23   Atom       -0.002561      0.003510     -0.000949
    24   Atom       -0.002355      0.004996     -0.002640
    25   Atom       -0.004393      0.008756     -0.004363
    26   Atom       -0.002672      0.005293     -0.002621
    27   Atom        0.000002      0.001766     -0.001768
    28   Atom        0.001438     -0.000737     -0.000701
    29   Atom        0.001506     -0.000708     -0.000799
    30   Atom        0.001108     -0.000617     -0.000491
    31   Atom        0.000676     -0.000335     -0.000341
    32   Atom        0.000629     -0.000314     -0.000315
    33   Atom        0.000524     -0.000251     -0.000273
    34   Atom        0.000554     -0.000286     -0.000267
 --------------------------------------------------------
                        XY            XZ            YZ
 --------------------------------------------------------
     1   Atom       -0.206158      1.125347     -0.484842
     2   Atom       -0.138683      0.688484     -0.292472
     3   Atom       -0.006573     -0.002102      0.007636
     4   Atom       -0.006316     -0.006255      0.003576
     5   Atom        0.002227     -0.006894     -0.001825
     6   Atom        0.000888     -0.001788     -0.000405
     7   Atom        0.001477      0.000617      0.000377
     8   Atom        0.011633     -0.002586     -0.003951
     9   Atom        0.010611      0.008519      0.022073
    10   Atom       -0.012690      0.005336     -0.018089
    11   Atom        0.014508      0.014203      0.017461
    12   Atom       -0.004935      0.000676     -0.022870
    13   Atom       -0.002643     -0.002919      0.001899
    14   Atom        0.000293     -0.001656     -0.000237
    15   Atom        0.001536     -0.001639     -0.000952
    16   Atom        0.003842      0.007369      0.001994
    17   Atom        0.005161      0.000600      0.001047
    18   Atom        0.005058      0.002145      0.008042
    19   Atom       -0.001046     -0.001359     -0.005542
    20   Atom        0.003193     -0.001002     -0.003309
    21   Atom        0.000796      0.000254     -0.007305
    22   Atom        0.000776      0.002985      0.005460
    23   Atom       -0.000862     -0.000009      0.004768
    24   Atom        0.005364      0.001731      0.007357
    25   Atom       -0.001264     -0.001205     -0.005679
    26   Atom       -0.003466     -0.000586      0.000576
    27   Atom       -0.006230      0.005189     -0.004080
    28   Atom       -0.000189     -0.000194      0.000031
    29   Atom       -0.000547      0.000329     -0.000077
    30   Atom       -0.000346     -0.000564      0.000142
    31   Atom       -0.000041     -0.000052      0.000002
    32   Atom        0.000042      0.000066      0.000003
    33   Atom       -0.000121     -0.000025      0.000004
    34   Atom        0.000024     -0.000140     -0.000004
 --------------------------------------------------------


 ---------------------------------------------------------------------------------
              Anisotropic Spin Dipole Couplings in Principal Axis System
 ---------------------------------------------------------------------------------

       Atom             a.u.   MegaHertz   Gauss  10(-4) cm-1        Axes

              Baa    -1.0642    77.007    27.478    25.687  0.8973 -0.1262 -0.4229
     1 O(17)  Bbb    -0.9977    72.190    25.759    24.080  0.1875  0.9765  0.1064
              Bcc     2.0619  -149.197   -53.237   -49.767  0.3996 -0.1748  0.8999
 
              Baa    -0.6272   -24.188    -8.631    -8.068  0.1810  0.9775  0.1085
     2 N(14)  Bbb    -0.6125   -23.622    -8.429    -7.879  0.8907 -0.1161 -0.4396
              Bcc     1.2396    47.810    17.060    15.948  0.4171 -0.1762  0.8916
 
              Baa    -0.0094    -1.267    -0.452    -0.423  0.9271  0.3551 -0.1202
     3 C(13)  Bbb    -0.0064    -0.853    -0.304    -0.285  0.2425 -0.3236  0.9146
              Bcc     0.0158     2.121     0.757     0.707 -0.2859  0.8770  0.3861
 
              Baa    -0.0083    -1.117    -0.398    -0.372  0.3103  0.9304 -0.1952
     4 C(13)  Bbb    -0.0047    -0.626    -0.223    -0.209  0.4907  0.0191  0.8711
              Bcc     0.0130     1.743     0.622     0.581  0.8142 -0.3661 -0.4506
 
              Baa    -0.0076    -1.024    -0.365    -0.342  0.0301  0.9269  0.3742
     5 C(13)  Bbb    -0.0054    -0.725    -0.259    -0.242  0.4353 -0.3491  0.8298
              Bcc     0.0130     1.749     0.624     0.583  0.8998  0.1380 -0.4140
 
              Baa    -0.0016    -0.218    -0.078    -0.073  0.4728 -0.2270  0.8514
     6 C(13)  Bbb    -0.0015    -0.201    -0.072    -0.067 -0.0864  0.9496  0.3012
              Bcc     0.0031     0.419     0.149     0.140  0.8769  0.2160 -0.4293
 
              Baa    -0.0021    -0.085    -0.031    -0.029 -0.1479  0.7861 -0.6002
     7 S(33)  Bbb    -0.0017    -0.069    -0.025    -0.023 -0.2636  0.5536  0.7900
              Bcc     0.0038     0.155     0.055     0.052  0.9532  0.2751  0.1254
 
              Baa    -0.0091    -1.218    -0.435    -0.406  0.7354 -0.6470 -0.2014
     8 C(13)  Bbb    -0.0067    -0.906    -0.323    -0.302  0.2907  0.0327  0.9563
              Bcc     0.0158     2.123     0.758     0.708  0.6121  0.7618 -0.2121
 
              Baa    -0.0186    -2.499    -0.892    -0.834 -0.5298  0.7344 -0.4241
     9 C(13)  Bbb    -0.0133    -1.786    -0.637    -0.596  0.7934  0.2525 -0.5539
              Bcc     0.0319     4.285     1.529     1.429  0.2997  0.6300  0.7164
 
              Baa    -0.0191    -2.570    -0.917    -0.857  0.1096  0.4694  0.8762
    10 C(13)  Bbb    -0.0122    -1.641    -0.585    -0.547  0.9363  0.2472 -0.2496
              Bcc     0.0314     4.210     1.502     1.404 -0.3337  0.8477 -0.4124
 
              Baa    -0.0186    -2.500    -0.892    -0.834 -0.0794 -0.6372  0.7666
    11 C(13)  Bbb    -0.0122    -1.636    -0.584    -0.546  0.8131 -0.4863 -0.3200
              Bcc     0.0308     4.136     1.476     1.380  0.5767  0.5979  0.5567
 
              Baa    -0.0190    -2.555    -0.912    -0.852  0.7545  0.4114  0.5113
    12 C(13)  Bbb    -0.0147    -1.978    -0.706    -0.660 -0.6503  0.3632  0.6673
              Bcc     0.0338     4.533     1.617     1.512 -0.0888  0.8360 -0.5416
 
              Baa    -0.0028    -1.499    -0.535    -0.500  0.3020  0.8890 -0.3442
    13 H(1)   Bbb    -0.0025    -1.340    -0.478    -0.447  0.6123  0.0958  0.7848
              Bcc     0.0053     2.840     1.013     0.947  0.7307 -0.4478 -0.5154
 
              Baa    -0.0013    -0.692    -0.247    -0.231  0.2055  0.8487  0.4874
    14 H(1)   Bbb    -0.0012    -0.638    -0.228    -0.213  0.4978 -0.5194  0.6946
              Bcc     0.0025     1.331     0.475     0.444  0.8426  0.0999 -0.5292
 
              Baa    -0.0016    -0.830    -0.296    -0.277 -0.3597  0.8996  0.2478
    15 H(1)   Bbb    -0.0015    -0.796    -0.284    -0.266  0.5340 -0.0193  0.8453
              Bcc     0.0030     1.626     0.580     0.542  0.7652  0.4363 -0.4734
 
              Baa    -0.0063    -3.354    -1.197    -1.119  0.6493 -0.4099 -0.6406
    16 H(1)   Bbb    -0.0043    -2.270    -0.810    -0.757  0.0498  0.8634 -0.5020
              Bcc     0.0105     5.624     2.007     1.876  0.7589  0.2940  0.5810
 
              Baa    -0.0040    -2.135    -0.762    -0.712  0.7423 -0.6504  0.1612
    17 H(1)   Bbb    -0.0027    -1.418    -0.506    -0.473 -0.2057  0.0078  0.9786
              Bcc     0.0067     3.553     1.268     1.185  0.6377  0.7595  0.1280
 
              Baa    -0.0077    -4.135    -1.475    -1.379  0.2924 -0.6239  0.7248
    18 H(1)   Bbb    -0.0040    -2.123    -0.758    -0.708  0.8862 -0.1081 -0.4506
              Bcc     0.0117     6.258     2.233     2.087  0.3595  0.7740  0.5212
 
              Baa    -0.0080    -4.242    -1.514    -1.415  0.4770  0.2808  0.8329
    19 H(1)   Bbb    -0.0041    -2.192    -0.782    -0.731  0.8782 -0.1151 -0.4642
              Bcc     0.0121     6.434     2.296     2.146 -0.0345  0.9529 -0.3014
 
              Baa    -0.0042    -2.222    -0.793    -0.741 -0.1561  0.4263  0.8910
    20 H(1)   Bbb    -0.0025    -1.352    -0.483    -0.451  0.9072 -0.2948  0.3000
              Bcc     0.0067     3.574     1.275     1.192  0.3906  0.8552 -0.3407
 
              Baa    -0.0060    -3.203    -1.143    -1.069  0.8006 -0.4901 -0.3446
    21 H(1)   Bbb    -0.0044    -2.323    -0.829    -0.775  0.5989  0.6384  0.4835
              Bcc     0.0104     5.527     1.972     1.844 -0.0170 -0.5935  0.8047
 
              Baa    -0.0060    -3.210    -1.145    -1.071  0.9192  0.2485 -0.3053
    22 H(1)   Bbb    -0.0045    -2.378    -0.849    -0.793 -0.3447  0.8827 -0.3193
              Bcc     0.0105     5.589     1.994     1.864  0.1902  0.3987  0.8971
 
              Baa    -0.0041    -2.198    -0.784    -0.733 -0.2889 -0.5306  0.7969
    23 H(1)   Bbb    -0.0025    -1.325    -0.473    -0.442  0.9540 -0.0902  0.2858
              Bcc     0.0066     3.523     1.257     1.175 -0.0797  0.8428  0.5322
 
              Baa    -0.0076    -4.055    -1.447    -1.353  0.3488 -0.5790  0.7370
    24 H(1)   Bbb    -0.0040    -2.150    -0.767    -0.717  0.8624 -0.1096 -0.4943
              Bcc     0.0116     6.205     2.214     2.070  0.3670  0.8079  0.4610
 
              Baa    -0.0073    -3.910    -1.395    -1.304  0.4755  0.3258  0.8171
    25 H(1)   Bbb    -0.0036    -1.911    -0.682    -0.638  0.8783 -0.1227 -0.4621
              Bcc     0.0109     5.822     2.077     1.942 -0.0503  0.9374 -0.3445
 
              Baa    -0.0041    -2.164    -0.772    -0.722  0.9142  0.3239  0.2436
    26 H(1)   Bbb    -0.0026    -1.384    -0.494    -0.462 -0.2012 -0.1590  0.9666
              Bcc     0.0067     3.548     1.266     1.184 -0.3518  0.9326  0.0801
 
              Baa    -0.0064    -3.419    -1.220    -1.140  0.7516  0.2732 -0.6004
    27 H(1)   Bbb    -0.0042    -2.237    -0.798    -0.746  0.2588  0.7151  0.6493
              Bcc     0.0106     5.656     2.018     1.887 -0.6067  0.6434 -0.4668
 
              Baa    -0.0008    -0.031    -0.011    -0.010  0.0515  0.9407 -0.3353
    28 S(33)  Bbb    -0.0007    -0.029    -0.010    -0.010  0.1133  0.3281  0.9378
              Bcc     0.0015     0.060     0.022     0.020  0.9922 -0.0863 -0.0897
 
              Baa    -0.0008     0.061     0.022     0.020 -0.1226  0.0692  0.9900
    29 O(17)  Bbb    -0.0008     0.060     0.022     0.020  0.2326  0.9718 -0.0391
              Bcc     0.0017    -0.122    -0.043    -0.041  0.9648 -0.2255  0.1353
 
              Baa    -0.0007     0.051     0.018     0.017 -0.0406  0.7881 -0.6142
    30 O(17)  Bbb    -0.0006     0.047     0.017     0.016  0.3501  0.5870  0.7300
              Bcc     0.0014    -0.098    -0.035    -0.033  0.9358 -0.1854 -0.2998
 
              Baa    -0.0003    -0.046    -0.016    -0.015  0.0529  0.0479  0.9974
    31 C(13)  Bbb    -0.0003    -0.045    -0.016    -0.015  0.0375  0.9980 -0.0499
              Bcc     0.0007     0.091     0.033     0.030  0.9979 -0.0400 -0.0510
 
              Baa    -0.0003    -0.171    -0.061    -0.057 -0.0709  0.0255  0.9972
    32 H(1)   Bbb    -0.0003    -0.168    -0.060    -0.056 -0.0419  0.9987 -0.0285
              Bcc     0.0006     0.339     0.121     0.113  0.9966  0.0438  0.0697
 
              Baa    -0.0003    -0.146    -0.052    -0.049  0.0337  0.0153  0.9993
    33 H(1)   Bbb    -0.0003    -0.144    -0.051    -0.048  0.1505  0.9884 -0.0202
              Bcc     0.0005     0.290     0.103     0.097  0.9880 -0.1511 -0.0310
 
              Baa    -0.0003    -0.155    -0.055    -0.052  0.1660 -0.1505  0.9746
    34 H(1)   Bbb    -0.0003    -0.153    -0.055    -0.051 -0.0031  0.9882  0.1531
              Bcc     0.0006     0.308     0.110     0.103  0.9861  0.0285 -0.1636
 

 ---------------------------------------------------------------------------------

 No NMR shielding tensors so no spin-rotation constants.
 Leave Link  601 at Wed Jun 12 15:28:55 2019, MaxMem=  8053063680 cpu:               0.0 elap:               0.4
 (Enter /data2/g16/g16/l9999.exe)
 1\1\GINC-CU02\SP\UPBE1PBE\Gen\C10H18N1O3S2(2)\ROOT\12-Jun-2019\0\\#p g
 en 6d pbe1pbe\\start preoptimized\\0,2\O,0,-3.751982,0.202249,0.891701
 \N,0,-2.611931,0.036069,0.374221\C,0,-2.161833,-1.267829,-0.158232\C,0
 ,-0.879083,-0.851792,-0.815939\C,0,-0.604804,0.447974,-0.657188\C,0,0.
 605445,1.125076,-1.198688\S,0,1.942867,1.442161,0.033285\C,0,-1.693106
 ,1.165435,0.113041\C,0,-1.239336,1.76311,1.448311\C,0,-2.420699,2.2212
 54,-0.723614\C,0,-3.205301,-1.810744,-1.13768\C,0,-1.929442,-2.255264,
 0.989931\H,0,-0.237433,-1.561674,-1.331213\H,0,1.062089,0.538949,-2.00
 2342\H,0,0.388048,2.128395,-1.583368\H,0,-0.673815,1.03374,2.036919\H,
 0,-0.606983,2.643265,1.292761\H,0,-2.125628,2.068391,2.015322\H,0,-3.3
 14992,2.547735,-0.185646\H,0,-1.780885,3.09493,-0.891869\H,0,-2.725398
 ,1.813468,-1.693586\H,0,-3.355885,-1.120758,-1.972764\H,0,-2.885784,-2
 .778133,-1.535776\H,0,-4.159369,-1.940848,-0.615238\H,0,-2.862551,-2.3
 97814,1.54617\H,0,-1.602377,-3.224213,0.598768\H,0,-1.160209,-1.88265,
 1.675599\S,0,2.758123,-0.534188,0.109576\O,0,2.335632,-1.21249,1.35242
 4\O,0,2.506839,-1.181762,-1.204259\C,0,4.510088,-0.17058,0.246546\H,0,
 4.660952,0.446218,1.133487\H,0,4.998013,-1.141987,0.362306\H,0,4.83039
 8,0.333114,-0.666695\\Version=AM64L-G16RevB.01\State=2-A\HF=-1467.5485
 895\S2=0.755005\S2-1=0.\S2A=0.750017\RMSD=8.794e-09\Dipole=1.6708859,0
 .7271145,-0.8111956\Quadrupole=2.1690763,1.4706462,-3.6397225,4.211257
 8,4.8175443,-0.4593742\PG=C01 [X(C10H18N1O3S2)]\\@


 WE ARE PERHAPS NOT FAR REMOVED FROM THE TIME WHEN WE SHALL BE ABLE TO SUBMIT
 THE BULK OF CHEMICAL PHENOMENA TO CALCULATION.

            -- JOSEPH LOUIS GAY-LUSSAC
               MEMOIRES DE LA SOCIETE D'ARCUEIL, 2, 207 (1808)
 Elapsed time:       0 days  0 hours  3 minutes  1.0 seconds.
 File lengths (MBytes):  RWF=    181 Int=      0 D2E=      0 Chk=     15 Scr=      1
 Normal termination of Gaussian 16 at Wed Jun 12 15:28:56 2019.
