 Entering Gaussian System, Link 0=g16
 AtFile(1): /home/malgo/Basis_sets/n07d_pbe0.gbs
            -H 0
             6-31G
             S   1 1.00       0.000000000000
                  0.4000000000D+00  0.10000000D+01
             P   1 1.00       0.000000000000
                  0.7500000000D+00  0.10000000D+01
             ****
             -He 0
             6-31+G**
             ****
             -Li 0
             6-31+G**
             ****
             -Be 0
             6-31+G**
             ****
             -B 0
             6-31G
             S   1 1.00       0.000000000000
                  0.7000000000D+01  0.1000000000D+01
             P   1 1.00       0.000000000000
                  0.3500000000D-01  0.1000000000D+01
             D   1 1.00
                  0.3430000000D+00  0.1000000000D+01
             ****
             -C 0
             6-31G
             S   1 1.00       0.000000000000
                  0.8700000000D+01  0.1000000000D+01
             P   1 1.00       0.000000000000
                  0.5000000000D-01  0.1000000000D+01
             D   1 1.00
                  0.8200000000D+00  0.1000000000D+01
             ****
             -N 0
             6-31G
             S   1 1.00       0.000000000000
                  0.1370000000D+02  0.1000000000D+01
             P   1 1.00       0.000000000000
                  0.5300000000D-01  0.1000000000D+01
             D   1 1.00       0.000000000000
                  0.1015000000D+01  0.1000000000D+01
             ****
             -O 0
             6-31G
             S   1 1.00
                  0.1600000000D+02  0.1000000000D+01
             P   1 1.00       0.000000000000
                  0.6500000000D-01  0.1000000000D+01
             D   1 1.00        0.000000000000
                  0.1190000000D+01  0.1000000000D+01
             D   1 1.00        0.000000000000
                  0.1800000000D+00  0.1000000000D+01
             ****
             -F 0
             6-31G
             S   1 1.00
                  0.1770000000D+02  0.1000000000D+01
             P   1 1.00       0.000000000000
                  0.8300000000D-01  0.1000000000D+01
             D   1 1.00       0.000000000000
                  1.3700000000D+00  0.1000000000D+01
             D   1 1.00       0.000000000000
                  0.2300000000D+00  0.1000000000D+01
             ****
             -Ne 0
             6-31+G**
             ****
             -Na 0
             6-31+G**
             ****
             -Mg 0
             6-31+G**
             ****
             -Al 0
             6-31G
             S   1 1.00      0.000000000000
                  0.3100000000D+01  0.1000000000D+01
             P   1 1.00      0.000000000000
                  0.1500000000D-01  0.1000000000D+01
             D   1 1.00      0.000000000000
                  0.1890000000D+00  0.1000000000D+01
             ****
             -Si 0
             6-31G
             S   1 1.00      0.000000000000
                  0.5000000000D+01  0.1000000000D+01
             P   1 1.00       0.000000000000
                  0.3300000000D-01  0.1000000000D+01
             D   1 1.0        0.000000000000
                  0.2750000000D+00  0.1000000000D+01
             ****
             -P  0
             6-31G
             S   1 1.00       0.000000000000
                  0.6300000000D+01  0.1000000000D+01
             P   1 1.00       0.000000000000
                  0.3500000000D-01  0.1000000000D+01
             D   1 1.00       0.000000000000
                  0.3730000000D+00  0.1000000000D+01
             ****
             -S  0
             6-31G
             S   1  1.00      0.000000000000
                  0.7500000000D+01  0.1000000000D+01
             P   1 1.00       0.000000000000
                  0.4100000000D-01  0.1000000000D+01
             D   1 1.00       0.000000000000
                  0.4790000000D+00  0.1000000000D+01
             ****
            -Cl 0
             6-31G
             S   1 1.00       0.000000000000
                  0.8500000000D+01  0.1000000000D+01
             P   1 1.00       0.000000000000
                  0.4800000000D-01  0.1000000000D+01
             D   1 1.00       0.000000000000
                  0.6000000000D+00  0.1000000000D+01
             D   1 1.00       0.000000000000
                  0.1960000000D+00  0.1000000000D+01
             ****
            -Br 0
             S   3 1.00       0.000000000000
                  0.4721881000D+01  0.1749732514D+00
                  0.2257555000D+01 -0.7074172290D+00
                  0.3896080000D+00  0.1258999543D+01
             S   1 1.00       0.000000000000
                  0.1471340000D+00  0.1000000000D+01
             P   3 1.00       0.000000000000
                  0.1896942000D+01 -0.2464576731D+00
                  0.9108990000D+00  0.3623179892D+00
                  0.3168550000D+00  0.8338469725D+00
             P   1 1.00       0.000000000000
                  0.1095030000D+00  0.1000000000D+01
             P   1 1.00       0.000000000000
                  0.3609700000D-01  0.1000000000D+01
             D   1 1.00
                  0.4750000000D+00  0.1000000000D+01
             D   1 1.00
                  0.1280000000D+00  0.1000000000D+01
             ****
            -I   0
             S   3 1.00       0.000000000000
                  0.2122765000D+01  0.2063429899D+01
                  0.1770481000D+01 -0.2869526473D+01
                  0.3130840000D+00  0.1404747074D+01
             S   1 1.00       0.000000000000
                  0.1320000000D+00  0.1000000000D+01
             P   3 1.00       0.000000000000
                  0.2432887000D+01  0.7732753148D+00
                  0.2137249000D+01 -0.1020833156D+01
                  0.3145460000D+00  0.1095666871D+01
             P   1 1.00       0.000000000000
                  0.1049450000D+00  0.1000000000D+01
             P   1 1.00       0.000000000000
                  0.3264100000D-01  0.1000000000D+01
             D   1 1.00
                  0.300000000          1.00000000
             D   1 1.00
                  0.090000000          1.00000000
             ****
             -Zn 0
             SP   6 1.00       0.000000000000
                  0.6936492000D+02 -0.4440098182D-02 -0.7689261805D-02
                  0.2362082000D+02  0.7505253308D-01 -0.2997981924D-01
                  0.1018471000D+02  0.2533111104D+00  0.7082410821D-01
                  0.4334082000D+01 -0.2881897118D+00  0.4046140897D+00
                  0.1810918000D+01 -0.7267052298D+00  0.4882324876D+00
                  0.7148410000D+00 -0.2133439088D+00  0.1751969956D+00
             SP   3 1.00       0.000000000000
                  0.2823842000D+01  0.4898545031D-01 -0.1586762981D+00
                  0.1039543000D+01  0.2592794075D+00  0.8379326898D-01
                  0.1432640000D+00 -0.1115711463D+01  0.9840546881D+00
             SP   1 1.00       0.000000000000
                  0.4929600000D-01  0.1000000000D+01  0.1000000000D+01
             S    1 1.00       0.000000000000
                  0.1620000000D+00  0.1000000000D+01
             D    3 1.00       0.000000000000
                  0.3370764000D+02  0.9262647815D-01
                  0.9061106000D+01  0.4002979920D+00
                  0.2738383000D+01  0.6896607863D+00
             D    1 1.00
                  0.2440000000D+01  0.1000000000D+01
             D    1 1.00       0.000000000000
                  0.7302940000D+00  0.1000000000D+01
             D    1 1.00       0.000000000000
                  0.1620000000D+00  0.1000000000D+01
            ****
 Initial command:
 /data2/g16/g16/l1.exe "/tmp/Gau-11403.inp" -scrdir="/tmp/"
 Entering Link 1 = /data2/g16/g16/l1.exe PID=     11404.
  
 Copyright (c) 1988-2017, Gaussian, Inc.  All Rights Reserved.
  
 This is part of the Gaussian(R) 16 program.  It is based on
 the Gaussian(R) 09 system (copyright 2009, Gaussian, Inc.),
 the Gaussian(R) 03 system (copyright 2003, Gaussian, Inc.),
 the Gaussian(R) 98 system (copyright 1998, Gaussian, Inc.),
 the Gaussian(R) 94 system (copyright 1995, Gaussian, Inc.),
 the Gaussian 92(TM) system (copyright 1992, Gaussian, Inc.),
 the Gaussian 90(TM) system (copyright 1990, Gaussian, Inc.),
 the Gaussian 88(TM) system (copyright 1988, Gaussian, Inc.),
 the Gaussian 86(TM) system (copyright 1986, Carnegie Mellon
 University), and the Gaussian 82(TM) system (copyright 1983,
 Carnegie Mellon University). Gaussian is a federally registered
 trademark of Gaussian, Inc.
  
 This software contains proprietary and confidential information,
 including trade secrets, belonging to Gaussian, Inc.
  
 This software is provided under written license and may be
 used, copied, transmitted, or stored only in accord with that
 written license.
  
 The following legend is applicable only to US Government
 contracts under FAR:
  
                    RESTRICTED RIGHTS LEGEND
  
 Use, reproduction and disclosure by the US Government is
 subject to restrictions as set forth in subparagraphs (a)
 and (c) of the Commercial Computer Software - Restricted
 Rights clause in FAR 52.227-19.
  
 Gaussian, Inc.
 340 Quinnipiac St., Bldg. 40, Wallingford CT 06492
  
  
 ---------------------------------------------------------------
 Warning -- This program may not be used in any manner that
 competes with the business of Gaussian, Inc. or will provide
 assistance to any competitor of Gaussian, Inc.  The licensee
 of this program is prohibited from giving any competitor of
 Gaussian, Inc. access to this program.  By using this program,
 the user acknowledges that Gaussian, Inc. is engaged in the
 business of creating and licensing software in the field of
 computational chemistry and represents and warrants to the
 licensee that it is not a competitor of Gaussian, Inc. and that
 it will not use this program in any manner prohibited above.
 ---------------------------------------------------------------
  

 Cite this work as:
 Gaussian 16, Revision B.01,
 M. J. Frisch, G. W. Trucks, H. B. Schlegel, G. E. Scuseria, 
 M. A. Robb, J. R. Cheeseman, G. Scalmani, V. Barone, 
 G. A. Petersson, H. Nakatsuji, X. Li, M. Caricato, A. V. Marenich, 
 J. Bloino, B. G. Janesko, R. Gomperts, B. Mennucci, H. P. Hratchian, 
 J. V. Ortiz, A. F. Izmaylov, J. L. Sonnenberg, D. Williams-Young, 
 F. Ding, F. Lipparini, F. Egidi, J. Goings, B. Peng, A. Petrone, 
 T. Henderson, D. Ranasinghe, V. G. Zakrzewski, J. Gao, N. Rega, 
 G. Zheng, W. Liang, M. Hada, M. Ehara, K. Toyota, R. Fukuda, 
 J. Hasegawa, M. Ishida, T. Nakajima, Y. Honda, O. Kitao, H. Nakai, 
 T. Vreven, K. Throssell, J. A. Montgomery, Jr., J. E. Peralta, 
 F. Ogliaro, M. J. Bearpark, J. J. Heyd, E. N. Brothers, K. N. Kudin, 
 V. N. Staroverov, T. A. Keith, R. Kobayashi, J. Normand, 
 K. Raghavachari, A. P. Rendell, J. C. Burant, S. S. Iyengar, 
 J. Tomasi, M. Cossi, J. M. Millam, M. Klene, C. Adamo, R. Cammi, 
 J. W. Ochterski, R. L. Martin, K. Morokuma, O. Farkas, 
 J. B. Foresman, and D. J. Fox, Gaussian, Inc., Wallingford CT, 2016.
 
 ******************************************
 Gaussian 16:  AM64L-G16RevB.01 20-Dec-2017
                12-Jun-2019 
 ******************************************
 %chk=MTN_PBE0_-0.30.chk
 %mem=60GB
 %nprocshared=12
 Will use up to   12 processors via shared memory.
 -----------------
 #p gen 6d pbe1pbe
 -----------------
 1/38=1,172=1/1;
 2/12=2,17=6,18=5,40=1/2;
 3/5=7,8=2,11=2,25=1,30=1,74=-13/1,2,3;
 4//1;
 5/5=2,38=5/2;
 6/7=2,8=2,9=2,10=2,28=1/1;
 99/5=1,9=1/99;
 Leave Link    1 at Wed Jun 12 15:28:58 2019, MaxMem=  8053063680 cpu:               0.0 elap:               0.0
 (Enter /data2/g16/g16/l101.exe)
 ------------------
 start preoptimized
 ------------------
 Symbolic Z-matrix:
 Charge =  0 Multiplicity = 2
 O                    -3.77098   0.21025   0.8567 
 N                    -2.60493   0.03407   0.38822 
 C                    -2.15983  -1.26783  -0.15523 
 C                    -0.88308  -0.84879  -0.82394 
 C                    -0.6068    0.44997  -0.65919 
 C                     0.60445   1.12608  -1.19969 
 S                     1.94187   1.44016   0.03329 
 C                    -1.69111   1.16543   0.11804 
 C                    -1.22934   1.76711   1.44931 
 C                    -2.4287    2.21725  -0.71461 
 C                    -3.2173   -1.80674  -1.12268 
 C                    -1.90944  -2.26126   0.98493 
 H                    -0.24443  -1.55767  -1.34421 
 H                     1.06109   0.53995  -2.00434 
 H                     0.38905   2.1304   -1.58337 
 H                    -0.65682   1.04074   2.03592 
 H                    -0.60098   2.64927   1.28876 
 H                    -2.11263   2.07139   2.02232 
 H                    -3.31899   2.54174  -0.16965 
 H                    -1.79189   3.09193  -0.88987 
 H                    -2.7404    1.80647  -1.68159 
 H                    -3.37989  -1.11376  -1.95276 
 H                    -2.90378  -2.77213  -1.52878 
 H                    -4.16437  -1.93785  -0.58624 
 H                    -2.83455  -2.41081   1.55417 
 H                    -1.58438  -3.22721   0.58477 
 H                    -1.13121  -1.88965   1.6626 
 S                     2.75912  -0.53519   0.11058 
 O                     2.33763  -1.21349   1.35342 
 O                     2.50884  -1.18476  -1.20326 
 C                     4.51009  -0.16758   0.24855 
 H                     4.65895   0.45022   1.13449 
 H                     5.00001  -1.13799   0.36531 
 H                     4.8304    0.33511  -0.6657 
 
 ITRead=  0  0  0  0  0  0  0  0  0  0  0  0  0  0  0  0  0  0  0  0
 ITRead=  0  0  0  0  0  0  0  0  0  0  0  0  0  0
 MicOpt= -1 -1 -1 -1 -1 -1 -1 -1 -1 -1 -1 -1 -1 -1 -1 -1 -1 -1 -1 -1
 MicOpt= -1 -1 -1 -1 -1 -1 -1 -1 -1 -1 -1 -1 -1 -1
 NAtoms=     34 NQM=       34 NQMF=       0 NMMI=      0 NMMIF=      0
                NMic=       0 NMicF=      0.
                    Isotopes and Nuclear Properties:
 (Nuclear quadrupole moments (NQMom) in fm**2, nuclear magnetic moments (NMagM)
  in nuclear magnetons)

  Atom         1           2           3           4           5           6           7           8           9          10
 IAtWgt=          16          14          12          12          12          12          32          12          12          12
 AtmWgt=  15.9949146  14.0030740  12.0000000  12.0000000  12.0000000  12.0000000  31.9720718  12.0000000  12.0000000  12.0000000
 NucSpn=           0           2           0           0           0           0           0           0           0           0
 AtZEff=   0.0000000   0.0000000   0.0000000   0.0000000   0.0000000   0.0000000   0.0000000   0.0000000   0.0000000   0.0000000
 NQMom=    0.0000000   2.0440000   0.0000000   0.0000000   0.0000000   0.0000000   0.0000000   0.0000000   0.0000000   0.0000000
 NMagM=    0.0000000   0.4037610   0.0000000   0.0000000   0.0000000   0.0000000   0.0000000   0.0000000   0.0000000   0.0000000
 AtZNuc=   8.0000000   7.0000000   6.0000000   6.0000000   6.0000000   6.0000000  16.0000000   6.0000000   6.0000000   6.0000000

  Atom        11          12          13          14          15          16          17          18          19          20
 IAtWgt=          12          12           1           1           1           1           1           1           1           1
 AtmWgt=  12.0000000  12.0000000   1.0078250   1.0078250   1.0078250   1.0078250   1.0078250   1.0078250   1.0078250   1.0078250
 NucSpn=           0           0           1           1           1           1           1           1           1           1
 AtZEff=   0.0000000   0.0000000   0.0000000   0.0000000   0.0000000   0.0000000   0.0000000   0.0000000   0.0000000   0.0000000
 NQMom=    0.0000000   0.0000000   0.0000000   0.0000000   0.0000000   0.0000000   0.0000000   0.0000000   0.0000000   0.0000000
 NMagM=    0.0000000   0.0000000   2.7928460   2.7928460   2.7928460   2.7928460   2.7928460   2.7928460   2.7928460   2.7928460
 AtZNuc=   6.0000000   6.0000000   1.0000000   1.0000000   1.0000000   1.0000000   1.0000000   1.0000000   1.0000000   1.0000000

  Atom        21          22          23          24          25          26          27          28          29          30
 IAtWgt=           1           1           1           1           1           1           1          32          16          16
 AtmWgt=   1.0078250   1.0078250   1.0078250   1.0078250   1.0078250   1.0078250   1.0078250  31.9720718  15.9949146  15.9949146
 NucSpn=           1           1           1           1           1           1           1           0           0           0
 AtZEff=   0.0000000   0.0000000   0.0000000   0.0000000   0.0000000   0.0000000   0.0000000   0.0000000   0.0000000   0.0000000
 NQMom=    0.0000000   0.0000000   0.0000000   0.0000000   0.0000000   0.0000000   0.0000000   0.0000000   0.0000000   0.0000000
 NMagM=    2.7928460   2.7928460   2.7928460   2.7928460   2.7928460   2.7928460   2.7928460   0.0000000   0.0000000   0.0000000
 AtZNuc=   1.0000000   1.0000000   1.0000000   1.0000000   1.0000000   1.0000000   1.0000000  16.0000000   8.0000000   8.0000000

  Atom        31          32          33          34
 IAtWgt=          12           1           1           1
 AtmWgt=  12.0000000   1.0078250   1.0078250   1.0078250
 NucSpn=           0           1           1           1
 AtZEff=   0.0000000   0.0000000   0.0000000   0.0000000
 NQMom=    0.0000000   0.0000000   0.0000000   0.0000000
 NMagM=    0.0000000   2.7928460   2.7928460   2.7928460
 AtZNuc=   6.0000000   1.0000000   1.0000000   1.0000000
 Leave Link  101 at Wed Jun 12 15:28:58 2019, MaxMem=  8053063680 cpu:               0.0 elap:               0.1
 (Enter /data2/g16/g16/l202.exe)
                          Input orientation:                          
 ---------------------------------------------------------------------
 Center     Atomic      Atomic             Coordinates (Angstroms)
 Number     Number       Type             X           Y           Z
 ---------------------------------------------------------------------
      1          8           0       -3.770982    0.210249    0.856701
      2          7           0       -2.604931    0.034069    0.388221
      3          6           0       -2.159833   -1.267829   -0.155232
      4          6           0       -0.883083   -0.848792   -0.823939
      5          6           0       -0.606804    0.449974   -0.659188
      6          6           0        0.604445    1.126076   -1.199688
      7         16           0        1.941867    1.440161    0.033285
      8          6           0       -1.691106    1.165435    0.118041
      9          6           0       -1.229336    1.767110    1.449311
     10          6           0       -2.428699    2.217254   -0.714614
     11          6           0       -3.217301   -1.806744   -1.122680
     12          6           0       -1.909442   -2.261264    0.984931
     13          1           0       -0.244433   -1.557674   -1.344213
     14          1           0        1.061089    0.539949   -2.004342
     15          1           0        0.389048    2.130395   -1.583368
     16          1           0       -0.656815    1.040740    2.035919
     17          1           0       -0.600983    2.649265    1.288761
     18          1           0       -2.112628    2.071391    2.022322
     19          1           0       -3.318992    2.541735   -0.169646
     20          1           0       -1.791885    3.091930   -0.889869
     21          1           0       -2.740398    1.806468   -1.681586
     22          1           0       -3.379885   -1.113758   -1.952764
     23          1           0       -2.903784   -2.772133   -1.528776
     24          1           0       -4.164369   -1.937848   -0.586238
     25          1           0       -2.834551   -2.410814    1.554170
     26          1           0       -1.584377   -3.227213    0.584768
     27          1           0       -1.131209   -1.889650    1.662599
     28         16           0        2.759123   -0.535188    0.110576
     29          8           0        2.337632   -1.213490    1.353424
     30          8           0        2.508839   -1.184762   -1.203259
     31          6           0        4.510088   -0.167580    0.248546
     32          1           0        4.658952    0.450218    1.134487
     33          1           0        5.000013   -1.137987    0.365306
     34          1           0        4.830398    0.335114   -0.665695
 ---------------------------------------------------------------------
                    Distance matrix (angstroms):
                    1          2          3          4          5
     1  O    0.000000
     2  N    1.268932   0.000000
     3  C    2.409258   1.479321   0.000000
     4  C    3.505150   2.283317   1.500950   0.000000
     5  C    3.516733   2.294026   2.369962   1.338008   0.000000
     6  C    4.920552   3.743532   3.803012   2.500806   1.488751
     7  S    5.901469   4.772468   4.918607   3.735570   2.820587
     8  C    2.404970   1.479210   2.493022   2.365869   1.513830
     9  C    3.038909   2.453896   3.556858   3.482887   2.562842
    10  C    2.880768   2.452264   3.539915   3.435334   2.538829
    11  C    2.879717   2.458945   1.531216   2.540766   3.481709
    12  C    3.096797   2.471502   1.532834   2.514061   3.427945
    13  H    4.517314   3.332705   2.272981   1.086772   2.152028
    14  H    5.625227   4.406810   4.130570   2.664912   2.144622
    15  H    5.191026   4.152789   4.481550   3.327252   2.160936
    16  H    3.431954   2.742891   3.519900   3.435159   2.759548
    17  H    4.022980   3.415557   4.456316   4.096277   2.937928
    18  H    2.751847   2.657692   3.986773   4.259161   3.476636
    19  H    2.587182   2.666362   3.982039   4.225805   3.459925
    20  H    3.907866   3.412488   4.436505   4.044695   2.904748
    21  H    3.170634   2.728342   3.481108   3.351952   2.727196
    22  H    3.130343   2.719976   2.177932   2.752903   3.436361
    23  H    3.916265   3.411592   2.168644   2.877372   4.051453
    24  H    2.617470   2.696270   2.157048   3.465456   4.285240
    25  H    2.869379   2.718385   2.164189   3.450151   4.248049
    26  H    4.083054   3.422882   2.172081   2.851869   4.003096
    27  H    3.468061   2.737990   2.179275   2.706995   3.337594
    28  S    6.614730   5.401316   4.980316   3.773239   3.590619
    29  O    6.291974   5.188155   4.744069   3.904730   3.935406
    30  O    6.754676   5.492632   4.785578   3.429562   3.560282
    31  C    8.311963   7.119246   6.772107   5.540809   5.233349
    32  H    8.437923   7.313965   7.149188   6.019719   5.562864
    33  H    8.887607   7.694765   7.179917   6.009056   5.916722
    34  H    8.735961   7.515683   7.189807   5.836997   5.438419
                    6          7          8          9         10
     6  C    0.000000
     7  S    1.845960   0.000000
     8  C    2.647171   3.644331   0.000000
     9  C    3.284946   3.488345   1.532163   0.000000
    10  C    3.259744   4.501675   1.530909   2.514691   0.000000
    11  C    4.817998   6.204487   3.564058   4.831105   4.120797
    12  C    4.750396   5.425750   3.541389   4.111689   4.818216
    13  H    2.818509   3.957831   3.412678   4.452864   4.406529
    14  H    1.095234   2.395428   3.531334   4.322001   4.081099
    15  H    1.096477   2.345472   2.855343   3.456629   2.949911
    16  H    3.473789   3.305031   2.182559   1.095218   3.476951
    17  H    3.156824   3.082895   2.181904   1.094898   2.746032
    18  H    4.319428   4.560005   2.150517   1.095962   2.758985
    19  H    4.296328   5.378781   2.151041   2.754583   1.093115
    20  H    3.114959   4.185864   2.176562   2.746520   1.096040
    21  H    3.447192   4.999857   2.179586   3.476690   1.095872
    22  H    4.632371   6.227996   3.512112   4.949583   3.678778
    23  H    5.254712   6.607858   4.437008   5.681330   5.077652
    24  H    5.701363   7.005774   4.030311   5.146318   4.504876
    25  H    5.649780   6.321176   4.019887   4.476914   5.170214
    26  H    5.189061   5.875620   4.418663   5.081019   5.660697
    27  H    4.505528   4.815195   3.468817   3.664289   4.919480
    28  S    3.019806   2.139132   4.764107   4.795893   5.930461
    29  O    3.872452   2.990194   4.839027   4.649347   6.226130
    30  O    2.994445   2.956471   4.990871   5.451938   6.015959
    31  C    4.361763   3.037586   6.344192   6.174613   7.400127
    32  H    4.726964   3.094379   6.470544   6.041958   7.535011
    33  H    5.186155   4.013644   7.080817   6.958408   8.222508
    34  H    4.332372   3.170696   6.620702   6.576035   7.499289
                   11         12         13         14         15
    11  C    0.000000
    12  C    2.521727   0.000000
    13  H    2.991497   2.948255   0.000000
    14  H    4.958721   5.060297   2.557378   0.000000
    15  H    5.359016   5.582641   3.749713   1.777182   0.000000
    16  H    4.963970   3.684682   4.283352   4.418789   3.921787
    17  H    5.702296   5.090940   4.975743   4.249262   3.081966
    18  H    5.113831   4.459749   5.290919   5.350871   4.388948
    19  H    4.452851   5.136991   5.257155   5.153481   3.989658
    20  H    5.107154   5.673216   4.921367   3.986743   2.482329
    21  H    3.687155   4.934293   4.202513   4.019894   3.147699
    22  H    1.093482   3.479802   3.224664   4.739162   4.986566
    23  H    1.093244   2.751077   2.929355   5.188089   5.905972
    24  H    1.096310   2.767285   4.010606   5.954486   6.186960
    25  H    2.770726   1.096460   3.979596   6.045331   6.392051
    26  H    2.756728   1.094922   2.881628   5.281429   6.107306
    27  H    3.480867   1.096803   3.152380   4.914832   5.385930
    28  S    6.233411   5.053646   3.490449   2.917553   3.948675
    29  O    6.110673   4.389904   3.750036   3.997337   4.858322
    30  O    5.760385   5.046607   2.781985   2.390051   3.953260
    31  C    8.017460   6.792359   5.203337   4.179916   5.061578
    32  H    8.498473   7.107623   5.849681   4.775449   5.333086
    33  H    8.377684   7.027535   5.531980   4.893447   5.978348
    34  H    8.340375   7.408859   5.458658   4.005200   4.877576
                   16         17         18         19         20
    16  H    0.000000
    17  H    1.774462   0.000000
    18  H    1.783765   1.776829   0.000000
    19  H    3.768911   3.086436   2.545832   0.000000
    20  H    3.749133   2.522029   3.102456   1.775807   0.000000
    21  H    4.329838   3.756377   3.766061   1.778019   1.782948
    22  H    5.288342   5.691232   5.249040   4.067659   4.619448
    23  H    5.682774   6.529392   6.057718   5.500620   6.002646
    24  H    5.296284   6.103683   5.204635   4.577650   5.569519
    25  H    4.109482   5.537478   4.564044   5.266305   6.110701
    26  H    4.602351   5.999639   5.515507   6.071144   6.492240
    27  H    2.991923   4.585046   4.096636   5.270739   5.636286
    28  S    4.226006   4.776942   5.846622   6.818318   5.904960
    29  O    3.809733   4.853918   5.571596   6.958366   6.373532
    30  O    5.046434   5.530002   6.508830   6.994194   6.073264
    31  C    5.599252   5.927876   7.212464   8.295165   7.185768
    32  H    5.423898   5.703203   7.019313   8.350018   7.258785
    33  H    6.287885   6.824017   7.977184   9.112210   8.099231
    34  H    6.156796   6.218930   7.644979   8.457411   7.176693
                   21         22         23         24         25
    21  H    0.000000
    22  H    3.001700   0.000000
    23  H    4.584063   1.776695   0.000000
    24  H    4.152997   1.778182   1.781427   0.000000
    25  H    5.316432   3.778668   3.104819   2.563876   0.000000
    26  H    5.640097   3.758937   2.532785   3.112889   1.780220
    27  H    5.237781   4.327748   3.755752   3.776195   1.784585
    28  S    6.240187   6.502271   6.305546   7.098433   6.073806
    29  O    6.642125   6.605363   6.181334   6.823709   5.312755
    30  O    6.060589   5.936655   5.649973   6.743853   6.136647
    31  C    7.758339   8.245768   8.056554   8.892520   7.789767
    32  H    8.032438   8.752145   8.641267   9.301330   8.032075
    33  H    8.530741   8.694638   8.290234   9.248303   8.025826
    34  H    7.779066   8.435907   8.379586   9.277850   8.439157
                   26         27         28         29         30
    26  H    0.000000
    27  H    1.776557   0.000000
    28  S    5.132041   4.402048   0.000000
    29  O    4.475273   3.547624   1.477301   0.000000
    30  O    4.911524   4.686145   1.486859   2.562570   0.000000
    31  C    6.827657   6.065419   1.794450   2.652216   2.673461
    32  H    7.266694   6.267364   2.372503   2.864330   3.572282
    33  H    6.911383   6.311882   2.334490   2.840836   2.944237
    34  H    7.443331   6.775787   2.377015   3.562148   2.826417
                   31         32         33         34
    31  C    0.000000
    32  H    1.090287   0.000000
    33  H    1.093320   1.797319   0.000000
    34  H    1.091392   1.811987   1.806034   0.000000
 Stoichiometry    C10H18NO3S2(2)
 Framework group  C1[X(C10H18NO3S2)]
 Deg. of freedom    96
 Full point group                 C1      NOp   1
 Largest Abelian subgroup         C1      NOp   1
 Largest concise Abelian subgroup C1      NOp   1
                         Standard orientation:                         
 ---------------------------------------------------------------------
 Center     Atomic      Atomic             Coordinates (Angstroms)
 Number     Number       Type             X           Y           Z
 ---------------------------------------------------------------------
      1          8           0       -3.768874    0.200578    0.867440
      2          7           0       -2.603782    0.027047    0.395596
      3          6           0       -2.156867   -1.274188   -0.147954
      4          6           0       -0.883269   -0.852404   -0.820931
      5          6           0       -0.609952    0.447251   -0.658266
      6          6           0        0.597849    1.126049   -1.203085
      7         16           0        1.938159    1.444885    0.025524
      8          6           0       -1.693796    1.160577    0.121559
      9          6           0       -1.229599    1.764768    1.450845
     10          6           0       -2.436707    2.209624   -0.709865
     11          6           0       -3.215822   -1.816851   -1.111673
     12          6           0       -1.900378   -2.265849    0.992398
     13          1           0       -0.244313   -1.560088   -1.342458
     14          1           0        1.053612    0.540360   -2.008557
     15          1           0        0.378617    2.129419   -1.587075
     16          1           0       -0.653371    1.040492    2.036411
     17          1           0       -0.604087    2.648435    1.287543
     18          1           0       -2.111958    2.067253    2.026239
     19          1           0       -3.326206    2.532263   -0.162512
     20          1           0       -1.802758    3.085820   -0.887890
     21          1           0       -2.750239    1.797073   -1.675493
     22          1           0       -3.382765   -1.125105   -1.941925
     23          1           0       -2.900967   -2.781796   -1.517790
     24          1           0       -4.160908   -1.949955   -0.572236
     25          1           0       -2.823357   -2.417308    1.564583
     26          1           0       -1.573955   -3.231317    0.592180
     27          1           0       -1.121088   -1.891510    1.667346
     28         16           0        2.760903   -0.528207    0.102234
     29          8           0        2.344987   -1.206424    1.347006
     30          8           0        2.508371   -1.179717   -1.210211
     31          6           0        4.511293   -0.155809    0.234542
     32          1           0        4.661194    0.463241    1.119433
     33          1           0        5.004152   -1.124796    0.350748
     34          1           0        4.827492    0.346850   -0.681149
 ---------------------------------------------------------------------
 Rotational constants (GHZ):           0.7804263           0.2769508           0.2421539
 Leave Link  202 at Wed Jun 12 15:28:58 2019, MaxMem=  8053063680 cpu:               0.0 elap:               0.1
 (Enter /data2/g16/g16/l301.exe)
 General basis read from cards:  (6D, 7F)
 Centers:      13     14     15     16     17     18     19     20     21     22
 Centers:      23     24     25     26     27     32     33     34
 6-31G
 S 1 1.00 0.000000000000
     Exponent=  4.0000000000D-01 Coefficients=  1.0000000000D+00
 P 1 1.00 0.000000000000
     Exponent=  7.5000000000D-01 Coefficients=  1.0000000000D+00
 ****
 Centers:       3      4      5      6      8      9     10     11     12     31
 6-31G
 S 1 1.00 0.000000000000
     Exponent=  8.7000000000D+00 Coefficients=  1.0000000000D+00
 P 1 1.00 0.000000000000
     Exponent=  5.0000000000D-02 Coefficients=  1.0000000000D+00
 D 1 1.00
     Exponent=  8.2000000000D-01 Coefficients=  1.0000000000D+00
 ****
 Centers:       2
 6-31G
 S 1 1.00 0.000000000000
     Exponent=  1.3700000000D+01 Coefficients=  1.0000000000D+00
 P 1 1.00 0.000000000000
     Exponent=  5.3000000000D-02 Coefficients=  1.0000000000D+00
 D 1 1.00 0.000000000000
     Exponent=  1.0150000000D+00 Coefficients=  1.0000000000D+00
 ****
 Centers:       1     29     30
 6-31G
 S 1 1.00
     Exponent=  1.6000000000D+01 Coefficients=  1.0000000000D+00
 P 1 1.00 0.000000000000
     Exponent=  6.5000000000D-02 Coefficients=  1.0000000000D+00
 D 1 1.00 0.000000000000
     Exponent=  1.1900000000D+00 Coefficients=  1.0000000000D+00
 D 1 1.00 0.000000000000
     Exponent=  1.8000000000D-01 Coefficients=  1.0000000000D+00
 ****
 Centers:       7     28
 6-31G
 S 1 1.00 0.000000000000
     Exponent=  7.5000000000D+00 Coefficients=  1.0000000000D+00
 P 1 1.00 0.000000000000
     Exponent=  4.1000000000D-02 Coefficients=  1.0000000000D+00
 D 1 1.00 0.000000000000
     Exponent=  4.7900000000D-01 Coefficients=  1.0000000000D+00
 ****
 Ernie: Thresh=  0.10000D-02 Tol=  0.10000D-05 Strict=F.
 There are   438 symmetry adapted cartesian basis functions of A   symmetry.
 There are   438 symmetry adapted basis functions of A   symmetry.
   438 basis functions,   722 primitive gaussians,   438 cartesian basis functions
    71 alpha electrons       70 beta electrons
       nuclear repulsion energy      1520.6251353236 Hartrees.
 IExCor= 1009 DFT=T Ex+Corr=PBE1PBE ExCW=0 ScaHFX=  0.250000
 ScaDFX=  0.750000  0.750000  1.000000  1.000000 ScalE2=  1.000000  1.000000
 IRadAn=      5 IRanWt=     -1 IRanGd=            0 ICorTp=0 IEmpDi=  4
 NAtoms=   34 NActive=   34 NUniq=   34 SFac= 1.00D+00 NAtFMM=   60 NAOKFM=F Big=F
 Integral buffers will be    131072 words long.
 Raffenetti 2 integral format.
 Two-electron integral symmetry is turned on.
 Leave Link  301 at Wed Jun 12 15:28:58 2019, MaxMem=  8053063680 cpu:               0.0 elap:               0.1
 (Enter /data2/g16/g16/l302.exe)
 NPDir=0 NMtPBC=     1 NCelOv=     1 NCel=       1 NClECP=     1 NCelD=      1
         NCelK=      1 NCelE2=     1 NClLst=     1 CellRange=     0.0.
 One-electron integrals computed using PRISM.
 One-electron integral symmetry used in STVInt
 NBasis=   438 RedAO= T EigKep=  6.43D-05  NBF=   438
 NBsUse=   438 1.00D-06 EigRej= -1.00D+00 NBFU=   438
 Precomputing XC quadrature grid using
 IXCGrd= 4 IRadAn=           5 IRanWt=          -1 IRanGd=           0 AccXCQ= 0.00D+00.
 Generated NRdTot=       0 NPtTot=           0 NUsed=           0 NTot=          32
 NSgBfM=   433   433   433   433   433 MxSgAt=    34 MxSgA2=    34.
 Leave Link  302 at Wed Jun 12 15:28:59 2019, MaxMem=  8053063680 cpu:               0.0 elap:               0.5
 (Enter /data2/g16/g16/l303.exe)
 DipDrv:  MaxL=1.
 Leave Link  303 at Wed Jun 12 15:28:59 2019, MaxMem=  8053063680 cpu:               0.0 elap:               0.1
 (Enter /data2/g16/g16/l401.exe)
 ExpMin= 4.10D-02 ExpMax= 2.19D+04 ExpMxC= 3.30D+03 IAcc=3 IRadAn=         5 AccDes= 0.00D+00
 Harris functional with IExCor= 1009 and IRadAn=       5 diagonalized for initial guess.
 HarFok:  IExCor= 1009 AccDes= 0.00D+00 IRadAn=         5 IDoV= 1 UseB2=F ITyADJ=14
 ICtDFT=  3500011 ScaDFX=  1.000000  1.000000  1.000000  1.000000
 FoFCou: FMM=F IPFlag=           0 FMFlag=      100000 FMFlg1=           0
         NFxFlg=           0 DoJE=T BraDBF=F KetDBF=T FulRan=T
         wScrn=  0.000000 ICntrl=       500 IOpCl=  0 I1Cent=   200000004 NGrid=           0
         NMat0=    1 NMatS0=      1 NMatT0=    0 NMatD0=    1 NMtDS0=    0 NMtDT0=    0
 Petite list used in FoFCou.
 Harris En= -1467.69825269570    
 JPrj=0 DoOrth=F DoCkMO=F.
 Initial guess <Sx>= 0.0000 <Sy>= 0.0000 <Sz>= 0.5000 <S**2>= 0.7500 S= 0.5000
 Leave Link  401 at Wed Jun 12 15:29:00 2019, MaxMem=  8053063680 cpu:               0.0 elap:               1.6
 (Enter /data2/g16/g16/l502.exe)
 Integral symmetry usage will be decided dynamically.
 UHF open shell SCF:
 Using DIIS extrapolation, IDIIS=  1040.
 NGot=  8053063680 LenX=  8052670277 LenY=  8052477992
 Requested convergence on RMS density matrix=1.00D-08 within 128 cycles.
 Requested convergence on MAX density matrix=1.00D-06.
 Requested convergence on             energy=1.00D-06.
 No special actions if energy rises.
 Fock matrices will be formed incrementally for  20 cycles.

 Cycle   1  Pass 1  IDiag  1:
 FoFJK:  IHMeth= 1 ICntrl=       0 DoSepK=F KAlg= 0 I1Cent=           0 FoldK=F
 IRaf= 840000000 NMat=       1 IRICut=       1 DoRegI=T DoRafI=F ISym2E= 0 IDoP0=0 IntGTp=1.
 FoFCou: FMM=F IPFlag=           0 FMFlag=      100000 FMFlg1=           0
         NFxFlg=           0 DoJE=F BraDBF=F KetDBF=F FulRan=T
         wScrn=  0.000000 ICntrl=         0 IOpCl=  1 I1Cent=           0 NGrid=           0
         NMat0=    1 NMatS0=      1 NMatT0=    0 NMatD0=    1 NMtDS0=    0 NMtDT0=    0
 Symmetry not used in FoFCou.
 E= -1466.93526437082    
 DIIS: error= 2.63D-02 at cycle   1 NSaved=   1.
 NSaved= 1 IEnMin= 1 EnMin= -1466.93526437082     IErMin= 1 ErrMin= 2.63D-02
 ErrMax= 2.63D-02  0.00D+00 EMaxC= 1.00D-01 BMatC= 2.97D+00 BMatP= 2.97D+00
 IDIUse=3 WtCom= 7.37D-01 WtEn= 2.63D-01
 Coeff-Com:  0.100D+01
 Coeff-En:   0.100D+01
 Coeff:      0.100D+01
 Gap=     0.225 Goal=   None    Shift=    0.000
 Gap=     0.364 Goal=   None    Shift=    0.000
 GapD=    0.225 DampG=1.000 DampE=0.500 DampFc=0.5000 IDamp=-1.
 Damping current iteration by 5.00D-01
 RMSDP=4.75D-03 MaxDP=4.12D-01              OVMax= 3.00D-01

 Cycle   2  Pass 1  IDiag  1:
 RMSU=  2.37D-03    CP:  9.92D-01
 E= -1467.06098659388     Delta-E=       -0.125722223062 Rises=F Damp=T
 DIIS: error= 1.02D-02 at cycle   2 NSaved=   2.
 NSaved= 2 IEnMin= 2 EnMin= -1467.06098659388     IErMin= 2 ErrMin= 1.02D-02
 ErrMax= 1.02D-02  0.00D+00 EMaxC= 1.00D-01 BMatC= 5.25D-01 BMatP= 2.97D+00
 IDIUse=3 WtCom= 8.98D-01 WtEn= 1.02D-01
 Coeff-Com:  0.227D+00 0.773D+00
 Coeff-En:   0.396D+00 0.604D+00
 Coeff:      0.244D+00 0.756D+00
 Gap=     0.129 Goal=   None    Shift=    0.000
 Gap=     0.186 Goal=   None    Shift=    0.000
 RMSDP=1.67D-03 MaxDP=1.18D-01 DE=-1.26D-01 OVMax= 2.84D-01

 Cycle   3  Pass 1  IDiag  1:
 RMSU=  1.39D-03    CP:  9.82D-01  6.10D-01
 E= -1467.46556028859     Delta-E=       -0.404573694706 Rises=F Damp=F
 DIIS: error= 7.41D-03 at cycle   3 NSaved=   3.
 NSaved= 3 IEnMin= 3 EnMin= -1467.46556028859     IErMin= 3 ErrMin= 7.41D-03
 ErrMax= 7.41D-03  0.00D+00 EMaxC= 1.00D-01 BMatC= 3.57D-01 BMatP= 5.25D-01
 IDIUse=3 WtCom= 9.26D-01 WtEn= 7.41D-02
 Coeff-Com:  0.532D-01 0.446D+00 0.501D+00
 Coeff-En:   0.000D+00 0.000D+00 0.100D+01
 Coeff:      0.493D-01 0.413D+00 0.538D+00
 Gap=     0.146 Goal=   None    Shift=    0.000
 Gap=     0.223 Goal=   None    Shift=    0.000
 RMSDP=9.20D-04 MaxDP=6.33D-02 DE=-4.05D-01 OVMax= 1.07D-01

 Cycle   4  Pass 1  IDiag  1:
 RMSU=  6.14D-04    CP:  9.87D-01  7.31D-01  5.53D-01
 E= -1467.53908697346     Delta-E=       -0.073526684869 Rises=F Damp=F
 DIIS: error= 2.28D-03 at cycle   4 NSaved=   4.
 NSaved= 4 IEnMin= 4 EnMin= -1467.53908697346     IErMin= 4 ErrMin= 2.28D-03
 ErrMax= 2.28D-03  0.00D+00 EMaxC= 1.00D-01 BMatC= 3.92D-02 BMatP= 3.57D-01
 IDIUse=3 WtCom= 9.77D-01 WtEn= 2.28D-02
 Coeff-Com: -0.140D-01 0.709D-01 0.270D+00 0.674D+00
 Coeff-En:   0.000D+00 0.000D+00 0.752D-01 0.925D+00
 Coeff:     -0.137D-01 0.693D-01 0.265D+00 0.679D+00
 Gap=     0.145 Goal=   None    Shift=    0.000
 Gap=     0.202 Goal=   None    Shift=    0.000
 RMSDP=3.04D-04 MaxDP=1.65D-02 DE=-7.35D-02 OVMax= 3.03D-02

 Cycle   5  Pass 1  IDiag  1:
 RMSU=  2.03D-04    CP:  9.86D-01  7.23D-01  6.55D-01  7.14D-01
 E= -1467.54724909635     Delta-E=       -0.008162122899 Rises=F Damp=F
 DIIS: error= 8.54D-04 at cycle   5 NSaved=   5.
 NSaved= 5 IEnMin= 5 EnMin= -1467.54724909635     IErMin= 5 ErrMin= 8.54D-04
 ErrMax= 8.54D-04  0.00D+00 EMaxC= 1.00D-01 BMatC= 3.95D-03 BMatP= 3.92D-02
 IDIUse=3 WtCom= 9.91D-01 WtEn= 8.54D-03
 Coeff-Com: -0.990D-02 0.178D-01 0.122D+00 0.378D+00 0.492D+00
 Coeff-En:   0.000D+00 0.000D+00 0.000D+00 0.000D+00 0.100D+01
 Coeff:     -0.982D-02 0.177D-01 0.121D+00 0.375D+00 0.496D+00
 Gap=     0.146 Goal=   None    Shift=    0.000
 Gap=     0.205 Goal=   None    Shift=    0.000
 RMSDP=1.10D-04 MaxDP=5.33D-03 DE=-8.16D-03 OVMax= 1.26D-02

 Cycle   6  Pass 1  IDiag  1:
 RMSU=  6.94D-05    CP:  9.85D-01  7.25D-01  6.51D-01  7.72D-01  6.23D-01
 E= -1467.54811032029     Delta-E=       -0.000861223935 Rises=F Damp=F
 DIIS: error= 2.41D-04 at cycle   6 NSaved=   6.
 NSaved= 6 IEnMin= 6 EnMin= -1467.54811032029     IErMin= 6 ErrMin= 2.41D-04
 ErrMax= 2.41D-04  0.00D+00 EMaxC= 1.00D-01 BMatC= 4.06D-04 BMatP= 3.95D-03
 IDIUse=3 WtCom= 9.98D-01 WtEn= 2.41D-03
 Coeff-Com: -0.333D-02 0.211D-02 0.340D-01 0.119D+00 0.273D+00 0.575D+00
 Coeff-En:   0.000D+00 0.000D+00 0.000D+00 0.000D+00 0.444D-01 0.956D+00
 Coeff:     -0.332D-02 0.210D-02 0.339D-01 0.119D+00 0.273D+00 0.576D+00
 Gap=     0.148 Goal=   None    Shift=    0.000
 Gap=     0.206 Goal=   None    Shift=    0.000
 RMSDP=3.59D-05 MaxDP=2.49D-03 DE=-8.61D-04 OVMax= 5.20D-03

 Cycle   7  Pass 1  IDiag  1:
 RMSU=  2.54D-05    CP:  9.85D-01  7.22D-01  6.57D-01  7.73D-01  6.67D-01
                    CP:  6.97D-01
 E= -1467.54820449435     Delta-E=       -0.000094174061 Rises=F Damp=F
 DIIS: error= 1.22D-04 at cycle   7 NSaved=   7.
 NSaved= 7 IEnMin= 7 EnMin= -1467.54820449435     IErMin= 7 ErrMin= 1.22D-04
 ErrMax= 1.22D-04  0.00D+00 EMaxC= 1.00D-01 BMatC= 6.74D-05 BMatP= 4.06D-04
 IDIUse=3 WtCom= 9.99D-01 WtEn= 1.22D-03
 Coeff-Com: -0.775D-04-0.237D-02-0.264D-02 0.155D-03 0.606D-01 0.330D+00
 Coeff-Com:  0.614D+00
 Coeff-En:   0.000D+00 0.000D+00 0.000D+00 0.000D+00 0.000D+00 0.708D-01
 Coeff-En:   0.929D+00
 Coeff:     -0.774D-04-0.236D-02-0.264D-02 0.154D-03 0.605D-01 0.330D+00
 Coeff:      0.615D+00
 Gap=     0.148 Goal=   None    Shift=    0.000
 Gap=     0.206 Goal=   None    Shift=    0.000
 RMSDP=1.50D-05 MaxDP=9.89D-04 DE=-9.42D-05 OVMax= 1.15D-03

 Cycle   8  Pass 1  IDiag  1:
 RMSU=  1.05D-05    CP:  9.85D-01  7.22D-01  6.57D-01  7.73D-01  7.00D-01
                    CP:  7.91D-01  7.95D-01
 E= -1467.54822081121     Delta-E=       -0.000016316861 Rises=F Damp=F
 DIIS: error= 3.70D-05 at cycle   8 NSaved=   8.
 NSaved= 8 IEnMin= 8 EnMin= -1467.54822081121     IErMin= 8 ErrMin= 3.70D-05
 ErrMax= 3.70D-05  0.00D+00 EMaxC= 1.00D-01 BMatC= 5.45D-06 BMatP= 6.74D-05
 IDIUse=1 WtCom= 1.00D+00 WtEn= 0.00D+00
 Coeff-Com:  0.467D-03-0.130D-02-0.527D-02-0.150D-01-0.145D-01 0.732D-01
 Coeff-Com:  0.233D+00 0.729D+00
 Coeff:      0.467D-03-0.130D-02-0.527D-02-0.150D-01-0.145D-01 0.732D-01
 Coeff:      0.233D+00 0.729D+00
 Gap=     0.148 Goal=   None    Shift=    0.000
 Gap=     0.206 Goal=   None    Shift=    0.000
 RMSDP=5.26D-06 MaxDP=6.33D-04 DE=-1.63D-05 OVMax= 1.20D-03

 Cycle   9  Pass 1  IDiag  1:
 RMSU=  4.39D-06    CP:  9.85D-01  7.22D-01  6.56D-01  7.75D-01  6.99D-01
                    CP:  8.22D-01  8.38D-01  9.08D-01
 E= -1467.54822231209     Delta-E=       -0.000001500880 Rises=F Damp=F
 DIIS: error= 2.32D-05 at cycle   9 NSaved=   9.
 NSaved= 9 IEnMin= 9 EnMin= -1467.54822231209     IErMin= 9 ErrMin= 2.32D-05
 ErrMax= 2.32D-05  0.00D+00 EMaxC= 1.00D-01 BMatC= 3.50D-06 BMatP= 5.45D-06
 IDIUse=1 WtCom= 1.00D+00 WtEn= 0.00D+00
 Coeff-Com:  0.379D-03-0.458D-03-0.295D-02-0.104D-01-0.261D-01-0.250D-01
 Coeff-Com:  0.315D-03 0.493D+00 0.571D+00
 Coeff:      0.379D-03-0.458D-03-0.295D-02-0.104D-01-0.261D-01-0.250D-01
 Coeff:      0.315D-03 0.493D+00 0.571D+00
 Gap=     0.148 Goal=   None    Shift=    0.000
 Gap=     0.206 Goal=   None    Shift=    0.000
 RMSDP=3.36D-06 MaxDP=2.36D-04 DE=-1.50D-06 OVMax= 3.14D-04

 Cycle  10  Pass 1  IDiag  1:
 RMSU=  2.36D-06    CP:  9.85D-01  7.22D-01  6.56D-01  7.74D-01  7.03D-01
                    CP:  8.38D-01  8.78D-01  1.05D+00  8.41D-01
 E= -1467.54822310581     Delta-E=       -0.000000793719 Rises=F Damp=F
 DIIS: error= 9.20D-06 at cycle  10 NSaved=  10.
 NSaved=10 IEnMin=10 EnMin= -1467.54822310581     IErMin=10 ErrMin= 9.20D-06
 ErrMax= 9.20D-06  0.00D+00 EMaxC= 1.00D-01 BMatC= 5.63D-07 BMatP= 3.50D-06
 IDIUse=1 WtCom= 1.00D+00 WtEn= 0.00D+00
 Coeff-Com:  0.120D-03 0.598D-04-0.167D-03-0.186D-02-0.125D-01-0.328D-01
 Coeff-Com: -0.710D-01 0.110D+00 0.333D+00 0.675D+00
 Coeff:      0.120D-03 0.598D-04-0.167D-03-0.186D-02-0.125D-01-0.328D-01
 Coeff:     -0.710D-01 0.110D+00 0.333D+00 0.675D+00
 Gap=     0.148 Goal=   None    Shift=    0.000
 Gap=     0.206 Goal=   None    Shift=    0.000
 RMSDP=1.69D-06 MaxDP=1.32D-04 DE=-7.94D-07 OVMax= 2.79D-04

 Cycle  11  Pass 1  IDiag  1:
 RMSU=  9.81D-07    CP:  9.85D-01  7.22D-01  6.56D-01  7.74D-01  7.04D-01
                    CP:  8.46D-01  8.88D-01  1.14D+00  9.75D-01  8.85D-01
 E= -1467.54822327247     Delta-E=       -0.000000166658 Rises=F Damp=F
 DIIS: error= 5.53D-06 at cycle  11 NSaved=  11.
 NSaved=11 IEnMin=11 EnMin= -1467.54822327247     IErMin=11 ErrMin= 5.53D-06
 ErrMax= 5.53D-06  0.00D+00 EMaxC= 1.00D-01 BMatC= 1.04D-07 BMatP= 5.63D-07
 IDIUse=1 WtCom= 1.00D+00 WtEn= 0.00D+00
 Coeff-Com:  0.404D-05 0.843D-04 0.442D-03 0.854D-03-0.225D-02-0.109D-01
 Coeff-Com: -0.373D-01-0.194D-01 0.641D-01 0.359D+00 0.645D+00
 Coeff:      0.404D-05 0.843D-04 0.442D-03 0.854D-03-0.225D-02-0.109D-01
 Coeff:     -0.373D-01-0.194D-01 0.641D-01 0.359D+00 0.645D+00
 Gap=     0.148 Goal=   None    Shift=    0.000
 Gap=     0.206 Goal=   None    Shift=    0.000
 RMSDP=6.27D-07 MaxDP=6.70D-05 DE=-1.67D-07 OVMax= 1.33D-04

 Cycle  12  Pass 1  IDiag  1:
 RMSU=  4.41D-07    CP:  9.85D-01  7.22D-01  6.56D-01  7.74D-01  7.03D-01
                    CP:  8.47D-01  8.85D-01  1.15D+00  1.02D+00  9.95D-01
                    CP:  8.27D-01
 E= -1467.54822329920     Delta-E=       -0.000000026727 Rises=F Damp=F
 DIIS: error= 3.49D-06 at cycle  12 NSaved=  12.
 NSaved=12 IEnMin=12 EnMin= -1467.54822329920     IErMin=12 ErrMin= 3.49D-06
 ErrMax= 3.49D-06  0.00D+00 EMaxC= 1.00D-01 BMatC= 3.00D-08 BMatP= 1.04D-07
 IDIUse=1 WtCom= 1.00D+00 WtEn= 0.00D+00
 Coeff-Com: -0.151D-04 0.320D-04 0.309D-03 0.853D-03 0.638D-03-0.138D-02
 Coeff-Com: -0.127D-01-0.344D-01-0.277D-01 0.102D+00 0.408D+00 0.564D+00
 Coeff:     -0.151D-04 0.320D-04 0.309D-03 0.853D-03 0.638D-03-0.138D-02
 Coeff:     -0.127D-01-0.344D-01-0.277D-01 0.102D+00 0.408D+00 0.564D+00
 Gap=     0.148 Goal=   None    Shift=    0.000
 Gap=     0.206 Goal=   None    Shift=    0.000
 RMSDP=3.44D-07 MaxDP=2.43D-05 DE=-2.67D-08 OVMax= 3.03D-05

 Cycle  13  Pass 1  IDiag  1:
 RMSU=  2.11D-07    CP:  9.85D-01  7.22D-01  6.56D-01  7.74D-01  7.03D-01
                    CP:  8.48D-01  8.86D-01  1.16D+00  1.05D+00  1.07D+00
                    CP:  9.54D-01  8.40D-01
 E= -1467.54822330576     Delta-E=       -0.000000006565 Rises=F Damp=F
 DIIS: error= 1.06D-06 at cycle  13 NSaved=  13.
 NSaved=13 IEnMin=13 EnMin= -1467.54822330576     IErMin=13 ErrMin= 1.06D-06
 ErrMax= 1.06D-06  0.00D+00 EMaxC= 1.00D-01 BMatC= 4.12D-09 BMatP= 3.00D-08
 IDIUse=1 WtCom= 1.00D+00 WtEn= 0.00D+00
 Coeff-Com: -0.541D-05-0.737D-05 0.573D-04 0.220D-03 0.912D-03 0.277D-02
 Coeff-Com:  0.360D-02-0.961D-02-0.320D-01-0.374D-01 0.605D-01 0.301D+00
 Coeff-Com:  0.710D+00
 Coeff:     -0.541D-05-0.737D-05 0.573D-04 0.220D-03 0.912D-03 0.277D-02
 Coeff:      0.360D-02-0.961D-02-0.320D-01-0.374D-01 0.605D-01 0.301D+00
 Coeff:      0.710D+00
 Gap=     0.148 Goal=   None    Shift=    0.000
 Gap=     0.206 Goal=   None    Shift=    0.000
 RMSDP=1.31D-07 MaxDP=1.38D-05 DE=-6.56D-09 OVMax= 2.25D-05

 Cycle  14  Pass 1  IDiag  1:
 RMSU=  1.08D-07    CP:  9.85D-01  7.22D-01  6.56D-01  7.74D-01  7.03D-01
                    CP:  8.48D-01  8.85D-01  1.16D+00  1.05D+00  1.08D+00
                    CP:  9.87D-01  8.58D-01  8.26D-01
 E= -1467.54822330705     Delta-E=       -0.000000001288 Rises=F Damp=F
 DIIS: error= 5.53D-07 at cycle  14 NSaved=  14.
 NSaved=14 IEnMin=14 EnMin= -1467.54822330705     IErMin=14 ErrMin= 5.53D-07
 ErrMax= 5.53D-07  0.00D+00 EMaxC= 1.00D-01 BMatC= 8.89D-10 BMatP= 4.12D-09
 IDIUse=1 WtCom= 1.00D+00 WtEn= 0.00D+00
 Coeff-Com:  0.183D-06-0.114D-04-0.287D-04-0.457D-04 0.337D-03 0.165D-02
 Coeff-Com:  0.404D-02 0.172D-02-0.114D-01-0.396D-01-0.520D-01 0.197D-01
 Coeff-Com:  0.374D+00 0.701D+00
 Coeff:      0.183D-06-0.114D-04-0.287D-04-0.457D-04 0.337D-03 0.165D-02
 Coeff:      0.404D-02 0.172D-02-0.114D-01-0.396D-01-0.520D-01 0.197D-01
 Coeff:      0.374D+00 0.701D+00
 Gap=     0.148 Goal=   None    Shift=    0.000
 Gap=     0.206 Goal=   None    Shift=    0.000
 RMSDP=7.35D-08 MaxDP=4.84D-06 DE=-1.29D-09 OVMax= 6.20D-06

 Cycle  15  Pass 1  IDiag  1:
 RMSU=  3.53D-08    CP:  9.85D-01  7.22D-01  6.56D-01  7.74D-01  7.03D-01
                    CP:  8.49D-01  8.85D-01  1.16D+00  1.05D+00  1.09D+00
                    CP:  1.01D+00  9.46D-01  9.49D-01  8.12D-01
 E= -1467.54822330733     Delta-E=       -0.000000000282 Rises=F Damp=F
 DIIS: error= 1.38D-07 at cycle  15 NSaved=  15.
 NSaved=15 IEnMin=15 EnMin= -1467.54822330733     IErMin=15 ErrMin= 1.38D-07
 ErrMax= 1.38D-07  0.00D+00 EMaxC= 1.00D-01 BMatC= 6.10D-11 BMatP= 8.89D-10
 IDIUse=1 WtCom= 1.00D+00 WtEn= 0.00D+00
 Coeff-Com:  0.840D-06-0.241D-05-0.199D-04-0.505D-04-0.138D-04 0.206D-03
 Coeff-Com:  0.870D-03 0.214D-02 0.544D-03-0.788D-02-0.260D-01-0.405D-01
 Coeff-Com:  0.398D-01 0.224D+00 0.807D+00
 Coeff:      0.840D-06-0.241D-05-0.199D-04-0.505D-04-0.138D-04 0.206D-03
 Coeff:      0.870D-03 0.214D-02 0.544D-03-0.788D-02-0.260D-01-0.405D-01
 Coeff:      0.398D-01 0.224D+00 0.807D+00
 Gap=     0.148 Goal=   None    Shift=    0.000
 Gap=     0.206 Goal=   None    Shift=    0.000
 RMSDP=2.10D-08 MaxDP=1.26D-06 DE=-2.82D-10 OVMax= 2.18D-06

 Cycle  16  Pass 1  IDiag  1:
 RMSU=  1.45D-08    CP:  9.85D-01  7.22D-01  6.56D-01  7.74D-01  7.03D-01
                    CP:  8.49D-01  8.85D-01  1.16D+00  1.05D+00  1.09D+00
                    CP:  1.01D+00  9.48D-01  9.96D-01  8.93D-01  9.37D-01
 E= -1467.54822330745     Delta-E=       -0.000000000125 Rises=F Damp=F
 DIIS: error= 4.90D-08 at cycle  16 NSaved=  16.
 NSaved=16 IEnMin=16 EnMin= -1467.54822330745     IErMin=16 ErrMin= 4.90D-08
 ErrMax= 4.90D-08  0.00D+00 EMaxC= 1.00D-01 BMatC= 1.21D-11 BMatP= 6.10D-11
 IDIUse=1 WtCom= 1.00D+00 WtEn= 0.00D+00
 Coeff-Com:  0.161D-06 0.988D-06-0.359D-05-0.115D-04-0.558D-04-0.161D-03
 Coeff-Com: -0.270D-03 0.591D-03 0.181D-02 0.309D-02-0.237D-02-0.193D-01
 Coeff-Com: -0.378D-01-0.232D-01 0.318D+00 0.759D+00
 Coeff:      0.161D-06 0.988D-06-0.359D-05-0.115D-04-0.558D-04-0.161D-03
 Coeff:     -0.270D-03 0.591D-03 0.181D-02 0.309D-02-0.237D-02-0.193D-01
 Coeff:     -0.378D-01-0.232D-01 0.318D+00 0.759D+00
 Gap=     0.148 Goal=   None    Shift=    0.000
 Gap=     0.206 Goal=   None    Shift=    0.000
 RMSDP=8.95D-09 MaxDP=4.86D-07 DE=-1.25D-10 OVMax= 1.30D-06

 SCF Done:  E(UPBE1PBE) =  -1467.54822331     A.U. after   16 cycles
            NFock= 16  Conv=0.89D-08     -V/T= 2.0053
 <Sx>= 0.0000 <Sy>= 0.0000 <Sz>= 0.5000 <S**2>= 0.7550 S= 0.5025
 <L.S>=  0.00000000000    
 KE= 1.459864116306D+03 PE=-6.496627611282D+03 EE= 2.048590136345D+03
 Annihilation of the first spin contaminant:
 S**2 before annihilation     0.7550,   after     0.7500
 Leave Link  502 at Wed Jun 12 15:32:00 2019, MaxMem=  8053063680 cpu:               0.0 elap:             179.3
 (Enter /data2/g16/g16/l601.exe)
 Copying SCF densities to generalized density rwf, IOpCl= 1 IROHF=0.

 **********************************************************************

            Population analysis using the SCF Density.

 **********************************************************************

 Orbital symmetries:
 Alpha Orbitals:
       Occupied  (A) (A) (A) (A) (A) (A) (A) (A) (A) (A) (A) (A)
                 (A) (A) (A) (A) (A) (A) (A) (A) (A) (A) (A) (A)
                 (A) (A) (A) (A) (A) (A) (A) (A) (A) (A) (A) (A)
                 (A) (A) (A) (A) (A) (A) (A) (A) (A) (A) (A) (A)
                 (A) (A) (A) (A) (A) (A) (A) (A) (A) (A) (A) (A)
                 (A) (A) (A) (A) (A) (A) (A) (A) (A) (A) (A)
       Virtual   (A) (A) (A) (A) (A) (A) (A) (A) (A) (A) (A) (A)
                 (A) (A) (A) (A) (A) (A) (A) (A) (A) (A) (A) (A)
                 (A) (A) (A) (A) (A) (A) (A) (A) (A) (A) (A) (A)
                 (A) (A) (A) (A) (A) (A) (A) (A) (A) (A) (A) (A)
                 (A) (A) (A) (A) (A) (A) (A) (A) (A) (A) (A) (A)
                 (A) (A) (A) (A) (A) (A) (A) (A) (A) (A) (A) (A)
                 (A) (A) (A) (A) (A) (A) (A) (A) (A) (A) (A) (A)
                 (A) (A) (A) (A) (A) (A) (A) (A) (A) (A) (A) (A)
                 (A) (A) (A) (A) (A) (A) (A) (A) (A) (A) (A) (A)
                 (A) (A) (A) (A) (A) (A) (A) (A) (A) (A) (A) (A)
                 (A) (A) (A) (A) (A) (A) (A) (A) (A) (A) (A) (A)
                 (A) (A) (A) (A) (A) (A) (A) (A) (A) (A) (A) (A)
                 (A) (A) (A) (A) (A) (A) (A) (A) (A) (A) (A) (A)
                 (A) (A) (A) (A) (A) (A) (A) (A) (A) (A) (A) (A)
                 (A) (A) (A) (A) (A) (A) (A) (A) (A) (A) (A) (A)
                 (A) (A) (A) (A) (A) (A) (A) (A) (A) (A) (A) (A)
                 (A) (A) (A) (A) (A) (A) (A) (A) (A) (A) (A) (A)
                 (A) (A) (A) (A) (A) (A) (A) (A) (A) (A) (A) (A)
                 (A) (A) (A) (A) (A) (A) (A) (A) (A) (A) (A) (A)
                 (A) (A) (A) (A) (A) (A) (A) (A) (A) (A) (A) (A)
                 (A) (A) (A) (A) (A) (A) (A) (A) (A) (A) (A) (A)
                 (A) (A) (A) (A) (A) (A) (A) (A) (A) (A) (A) (A)
                 (A) (A) (A) (A) (A) (A) (A) (A) (A) (A) (A) (A)
                 (A) (A) (A) (A) (A) (A) (A) (A) (A) (A) (A) (A)
                 (A) (A) (A) (A) (A) (A) (A) (A) (A) (A) (A) (A)
                 (A) (A) (A) (A) (A) (A) (A) (A) (A) (A) (A) (A)
                 (A) (A) (A) (A) (A) (A) (A) (A) (A) (A) (A) (A)
                 (A) (A) (A) (A) (A) (A) (A) (A) (A) (A) (A) (A)
                 (A) (A) (A) (A) (A) (A) (A) (A) (A) (A) (A) (A)
                 (A) (A) (A) (A) (A) (A) (A) (A) (A) (A) (A) (A)
                 (A) (A) (A) (A) (A) (A) (A)
 Beta  Orbitals:
       Occupied  (A) (A) (A) (A) (A) (A) (A) (A) (A) (A) (A) (A)
                 (A) (A) (A) (A) (A) (A) (A) (A) (A) (A) (A) (A)
                 (A) (A) (A) (A) (A) (A) (A) (A) (A) (A) (A) (A)
                 (A) (A) (A) (A) (A) (A) (A) (A) (A) (A) (A) (A)
                 (A) (A) (A) (A) (A) (A) (A) (A) (A) (A) (A) (A)
                 (A) (A) (A) (A) (A) (A) (A) (A) (A) (A)
       Virtual   (A) (A) (A) (A) (A) (A) (A) (A) (A) (A) (A) (A)
                 (A) (A) (A) (A) (A) (A) (A) (A) (A) (A) (A) (A)
                 (A) (A) (A) (A) (A) (A) (A) (A) (A) (A) (A) (A)
                 (A) (A) (A) (A) (A) (A) (A) (A) (A) (A) (A) (A)
                 (A) (A) (A) (A) (A) (A) (A) (A) (A) (A) (A) (A)
                 (A) (A) (A) (A) (A) (A) (A) (A) (A) (A) (A) (A)
                 (A) (A) (A) (A) (A) (A) (A) (A) (A) (A) (A) (A)
                 (A) (A) (A) (A) (A) (A) (A) (A) (A) (A) (A) (A)
                 (A) (A) (A) (A) (A) (A) (A) (A) (A) (A) (A) (A)
                 (A) (A) (A) (A) (A) (A) (A) (A) (A) (A) (A) (A)
                 (A) (A) (A) (A) (A) (A) (A) (A) (A) (A) (A) (A)
                 (A) (A) (A) (A) (A) (A) (A) (A) (A) (A) (A) (A)
                 (A) (A) (A) (A) (A) (A) (A) (A) (A) (A) (A) (A)
                 (A) (A) (A) (A) (A) (A) (A) (A) (A) (A) (A) (A)
                 (A) (A) (A) (A) (A) (A) (A) (A) (A) (A) (A) (A)
                 (A) (A) (A) (A) (A) (A) (A) (A) (A) (A) (A) (A)
                 (A) (A) (A) (A) (A) (A) (A) (A) (A) (A) (A) (A)
                 (A) (A) (A) (A) (A) (A) (A) (A) (A) (A) (A) (A)
                 (A) (A) (A) (A) (A) (A) (A) (A) (A) (A) (A) (A)
                 (A) (A) (A) (A) (A) (A) (A) (A) (A) (A) (A) (A)
                 (A) (A) (A) (A) (A) (A) (A) (A) (A) (A) (A) (A)
                 (A) (A) (A) (A) (A) (A) (A) (A) (A) (A) (A) (A)
                 (A) (A) (A) (A) (A) (A) (A) (A) (A) (A) (A) (A)
                 (A) (A) (A) (A) (A) (A) (A) (A) (A) (A) (A) (A)
                 (A) (A) (A) (A) (A) (A) (A) (A) (A) (A) (A) (A)
                 (A) (A) (A) (A) (A) (A) (A) (A) (A) (A) (A) (A)
                 (A) (A) (A) (A) (A) (A) (A) (A) (A) (A) (A) (A)
                 (A) (A) (A) (A) (A) (A) (A) (A) (A) (A) (A) (A)
                 (A) (A) (A) (A) (A) (A) (A) (A) (A) (A) (A) (A)
                 (A) (A) (A) (A) (A) (A) (A) (A) (A) (A) (A) (A)
                 (A) (A) (A) (A) (A) (A) (A) (A)
 The electronic state is 2-A.
 Alpha  occ. eigenvalues --  -89.28826 -89.08217 -19.24728 -19.24265 -19.22653
 Alpha  occ. eigenvalues --  -14.48522 -10.29845 -10.29719 -10.29157 -10.28753
 Alpha  occ. eigenvalues --  -10.26183 -10.24920 -10.23164 -10.22760 -10.22637
 Alpha  occ. eigenvalues --  -10.22484  -8.22140  -8.04460  -6.15861  -6.15820
 Alpha  occ. eigenvalues --   -6.15705  -5.98302  -5.97921  -5.97201  -1.14661
 Alpha  occ. eigenvalues --   -1.13357  -1.04427  -0.93279  -0.85919  -0.84042
 Alpha  occ. eigenvalues --   -0.82284  -0.77274  -0.74923  -0.72034  -0.71205
 Alpha  occ. eigenvalues --   -0.70632  -0.64491  -0.62469  -0.59018  -0.56413
 Alpha  occ. eigenvalues --   -0.53117  -0.51822  -0.51306  -0.50773  -0.50161
 Alpha  occ. eigenvalues --   -0.48474  -0.47409  -0.46381  -0.46159  -0.45208
 Alpha  occ. eigenvalues --   -0.44652  -0.44022  -0.42698  -0.42355  -0.41607
 Alpha  occ. eigenvalues --   -0.40519  -0.40052  -0.39117  -0.38877  -0.36471
 Alpha  occ. eigenvalues --   -0.36400  -0.36122  -0.35730  -0.35642  -0.34605
 Alpha  occ. eigenvalues --   -0.33581  -0.31772  -0.28366  -0.27206  -0.26938
 Alpha  occ. eigenvalues --   -0.20207
 Alpha virt. eigenvalues --   -0.05429  -0.02512   0.00427   0.01045   0.02611
 Alpha virt. eigenvalues --    0.03427   0.03747   0.04531   0.04780   0.05007
 Alpha virt. eigenvalues --    0.05447   0.05833   0.06165   0.06280   0.06844
 Alpha virt. eigenvalues --    0.07848   0.08230   0.08320   0.09005   0.09223
 Alpha virt. eigenvalues --    0.09407   0.09745   0.10267   0.10846   0.10960
 Alpha virt. eigenvalues --    0.11365   0.11881   0.12557   0.12997   0.13685
 Alpha virt. eigenvalues --    0.14030   0.14312   0.14814   0.15138   0.15462
 Alpha virt. eigenvalues --    0.16012   0.16486   0.16558   0.17153   0.17625
 Alpha virt. eigenvalues --    0.18526   0.18759   0.19256   0.19460   0.19693
 Alpha virt. eigenvalues --    0.20066   0.20899   0.21336   0.21830   0.22399
 Alpha virt. eigenvalues --    0.23142   0.23513   0.24207   0.24293   0.25154
 Alpha virt. eigenvalues --    0.25887   0.26297   0.26593   0.27143   0.27588
 Alpha virt. eigenvalues --    0.27976   0.28592   0.28779   0.29373   0.29644
 Alpha virt. eigenvalues --    0.30221   0.30644   0.31405   0.31455   0.32036
 Alpha virt. eigenvalues --    0.32608   0.32993   0.33747   0.34256   0.34975
 Alpha virt. eigenvalues --    0.35591   0.36784   0.37785   0.37855   0.40609
 Alpha virt. eigenvalues --    0.41526   0.42013   0.42198   0.42904   0.44529
 Alpha virt. eigenvalues --    0.46159   0.47340   0.47577   0.48122   0.49820
 Alpha virt. eigenvalues --    0.50583   0.51171   0.51701   0.52069   0.52323
 Alpha virt. eigenvalues --    0.53041   0.53780   0.54375   0.55444   0.56168
 Alpha virt. eigenvalues --    0.56904   0.57427   0.58402   0.59822   0.60286
 Alpha virt. eigenvalues --    0.60524   0.61766   0.62465   0.63329   0.63895
 Alpha virt. eigenvalues --    0.64523   0.65008   0.65503   0.65713   0.66812
 Alpha virt. eigenvalues --    0.68149   0.68446   0.68603   0.70095   0.71047
 Alpha virt. eigenvalues --    0.72097   0.72629   0.72927   0.73333   0.74198
 Alpha virt. eigenvalues --    0.74908   0.75691   0.76458   0.77505   0.78480
 Alpha virt. eigenvalues --    0.78964   0.79530   0.80610   0.81756   0.82416
 Alpha virt. eigenvalues --    0.82852   0.83334   0.83889   0.84722   0.85474
 Alpha virt. eigenvalues --    0.86046   0.86972   0.88044   0.88702   0.88772
 Alpha virt. eigenvalues --    0.89039   0.89674   0.90331   0.91078   0.91832
 Alpha virt. eigenvalues --    0.92183   0.92797   0.94341   0.94958   0.95140
 Alpha virt. eigenvalues --    0.95873   0.97725   0.97791   0.98314   0.99071
 Alpha virt. eigenvalues --    1.00116   1.01454   1.02152   1.03307   1.04023
 Alpha virt. eigenvalues --    1.04797   1.07226   1.08580   1.08989   1.11200
 Alpha virt. eigenvalues --    1.12399   1.14228   1.14931   1.15519   1.17144
 Alpha virt. eigenvalues --    1.18661   1.20110   1.22027   1.22251   1.23553
 Alpha virt. eigenvalues --    1.25674   1.29063   1.30212   1.30782   1.32379
 Alpha virt. eigenvalues --    1.36105   1.37944   1.39559   1.40164   1.41408
 Alpha virt. eigenvalues --    1.44287   1.45192   1.45782   1.48004   1.48785
 Alpha virt. eigenvalues --    1.50127   1.50251   1.50720   1.52919   1.56188
 Alpha virt. eigenvalues --    1.57226   1.59425   1.62682   1.63086   1.63394
 Alpha virt. eigenvalues --    1.65147   1.65520   1.66767   1.68132   1.68560
 Alpha virt. eigenvalues --    1.69268   1.71563   1.72188   1.73078   1.74488
 Alpha virt. eigenvalues --    1.75212   1.76436   1.77899   1.78823   1.79427
 Alpha virt. eigenvalues --    1.79657   1.80080   1.80703   1.82124   1.82518
 Alpha virt. eigenvalues --    1.83945   1.85056   1.85409   1.86111   1.86496
 Alpha virt. eigenvalues --    1.87643   1.89508   1.92315   1.92365   1.93825
 Alpha virt. eigenvalues --    1.95121   1.95939   1.97896   1.98314   1.99479
 Alpha virt. eigenvalues --    1.99904   2.01482   2.03258   2.03784   2.05539
 Alpha virt. eigenvalues --    2.06472   2.07388   2.10163   2.11710   2.13543
 Alpha virt. eigenvalues --    2.14569   2.16138   2.16753   2.24306   2.25650
 Alpha virt. eigenvalues --    2.28079   2.28865   2.30717   2.33121   2.34512
 Alpha virt. eigenvalues --    2.36403   2.38726   2.39430   2.40274   2.40978
 Alpha virt. eigenvalues --    2.42823   2.44743   2.47150   2.48644   2.49609
 Alpha virt. eigenvalues --    2.53788   2.54115   2.55062   2.58124   2.58532
 Alpha virt. eigenvalues --    2.60623   2.63634   2.65180   2.66093   2.67427
 Alpha virt. eigenvalues --    2.70588   2.75410   2.75676   2.76618   2.80458
 Alpha virt. eigenvalues --    2.82516   2.82692   2.83167   2.83249   2.84102
 Alpha virt. eigenvalues --    2.84328   2.85335   2.86326   2.87023   2.87749
 Alpha virt. eigenvalues --    2.88456   2.89609   2.91349   2.92973   2.93464
 Alpha virt. eigenvalues --    2.94395   2.95760   2.96773   2.97990   2.98428
 Alpha virt. eigenvalues --    2.99183   3.02886   3.03551   3.03985   3.06492
 Alpha virt. eigenvalues --    3.08147   3.15612   3.17964   3.19362   3.20185
 Alpha virt. eigenvalues --    3.26185   3.28169   3.29435   3.31120   3.31806
 Alpha virt. eigenvalues --    3.34553   3.35558   3.37186   3.38460   3.40784
 Alpha virt. eigenvalues --    3.42138   3.43452   3.44908   3.47716   3.50037
 Alpha virt. eigenvalues --    3.53461   3.57101   3.60137   3.63232   3.64810
 Alpha virt. eigenvalues --    3.77178   3.93541   4.47006   4.56839   4.62131
 Alpha virt. eigenvalues --    4.64107   4.72243   4.74028   4.74636   4.86588
 Alpha virt. eigenvalues --    4.91253   5.03031   5.44418   5.81669   5.84338
 Alpha virt. eigenvalues --    6.07776  22.21300  22.63208  58.49115  58.49223
 Alpha virt. eigenvalues --   58.50347  58.50607  58.50835  58.55744  58.56155
 Alpha virt. eigenvalues --   58.56251  58.56474  58.56751  95.61870 106.32194
 Alpha virt. eigenvalues --  106.33226 106.39053
  Beta  occ. eigenvalues --  -89.28826 -89.08216 -19.24728 -19.24265 -19.21221
  Beta  occ. eigenvalues --  -14.47330 -10.29847 -10.29719 -10.29221 -10.28817
  Beta  occ. eigenvalues --  -10.26181 -10.24916 -10.23117 -10.22709 -10.22593
  Beta  occ. eigenvalues --  -10.22429  -8.22140  -8.04459  -6.15861  -6.15820
  Beta  occ. eigenvalues --   -6.15705  -5.98302  -5.97921  -5.97201  -1.14661
  Beta  occ. eigenvalues --   -1.10721  -1.04427  -0.92327  -0.85726  -0.83940
  Beta  occ. eigenvalues --   -0.82146  -0.77072  -0.73858  -0.71797  -0.71080
  Beta  occ. eigenvalues --   -0.70164  -0.64437  -0.62339  -0.58637  -0.55900
  Beta  occ. eigenvalues --   -0.53031  -0.51814  -0.51025  -0.50421  -0.48394
  Beta  occ. eigenvalues --   -0.47487  -0.47149  -0.46372  -0.46090  -0.44942
  Beta  occ. eigenvalues --   -0.44296  -0.43894  -0.42494  -0.41575  -0.41110
  Beta  occ. eigenvalues --   -0.40210  -0.40017  -0.38765  -0.37639  -0.36345
  Beta  occ. eigenvalues --   -0.36087  -0.35701  -0.35639  -0.34577  -0.33579
  Beta  occ. eigenvalues --   -0.32685  -0.31769  -0.28272  -0.26745  -0.26012
  Beta virt. eigenvalues --   -0.05431  -0.03851  -0.02467   0.00437   0.01050
  Beta virt. eigenvalues --    0.02632   0.03447   0.03786   0.04564   0.04868
  Beta virt. eigenvalues --    0.05043   0.05474   0.05878   0.06193   0.06310
  Beta virt. eigenvalues --    0.06917   0.07866   0.08271   0.08433   0.09036
  Beta virt. eigenvalues --    0.09308   0.09441   0.09820   0.10317   0.10909
  Beta virt. eigenvalues --    0.10973   0.11401   0.11973   0.12662   0.13089
  Beta virt. eigenvalues --    0.13741   0.14079   0.14364   0.14940   0.15245
  Beta virt. eigenvalues --    0.15688   0.16097   0.16575   0.16860   0.17329
  Beta virt. eigenvalues --    0.17729   0.18569   0.18907   0.19330   0.19735
  Beta virt. eigenvalues --    0.19823   0.20250   0.20992   0.21466   0.21925
  Beta virt. eigenvalues --    0.22495   0.23330   0.23557   0.24354   0.24665
  Beta virt. eigenvalues --    0.25329   0.26048   0.26375   0.26673   0.27184
  Beta virt. eigenvalues --    0.27657   0.28047   0.28740   0.29000   0.29433
  Beta virt. eigenvalues --    0.29978   0.30509   0.30759   0.31520   0.31813
  Beta virt. eigenvalues --    0.32113   0.32733   0.33233   0.33983   0.34315
  Beta virt. eigenvalues --    0.35061   0.35783   0.36815   0.37871   0.37935
  Beta virt. eigenvalues --    0.40637   0.41569   0.42209   0.42515   0.43021
  Beta virt. eigenvalues --    0.44673   0.46219   0.47409   0.47627   0.48180
  Beta virt. eigenvalues --    0.49989   0.50636   0.51386   0.51810   0.52151
  Beta virt. eigenvalues --    0.52391   0.53104   0.54006   0.54403   0.55501
  Beta virt. eigenvalues --    0.56249   0.56966   0.57502   0.58521   0.60000
  Beta virt. eigenvalues --    0.60396   0.60661   0.61822   0.62511   0.63498
  Beta virt. eigenvalues --    0.63969   0.64588   0.65080   0.65639   0.65977
  Beta virt. eigenvalues --    0.66882   0.68220   0.68639   0.68795   0.70310
  Beta virt. eigenvalues --    0.71291   0.72230   0.72745   0.72994   0.73416
  Beta virt. eigenvalues --    0.74405   0.74936   0.75818   0.76531   0.77545
  Beta virt. eigenvalues --    0.78732   0.78990   0.79719   0.80706   0.81946
  Beta virt. eigenvalues --    0.82541   0.82899   0.83395   0.84000   0.84803
  Beta virt. eigenvalues --    0.85524   0.86164   0.87073   0.88068   0.88768
  Beta virt. eigenvalues --    0.88818   0.89079   0.89724   0.90390   0.91144
  Beta virt. eigenvalues --    0.91903   0.92299   0.93097   0.94475   0.95048
  Beta virt. eigenvalues --    0.95226   0.96060   0.97797   0.98108   0.98849
  Beta virt. eigenvalues --    0.99654   1.00448   1.01753   1.02185   1.03412
  Beta virt. eigenvalues --    1.04130   1.04924   1.07287   1.08641   1.09358
  Beta virt. eigenvalues --    1.11511   1.12429   1.14315   1.15005   1.15658
  Beta virt. eigenvalues --    1.17378   1.18889   1.20621   1.22374   1.22967
  Beta virt. eigenvalues --    1.24027   1.26070   1.29504   1.30432   1.31923
  Beta virt. eigenvalues --    1.32676   1.36508   1.38224   1.39599   1.40228
  Beta virt. eigenvalues --    1.41494   1.44313   1.45390   1.46062   1.48322
  Beta virt. eigenvalues --    1.48858   1.50208   1.50310   1.50771   1.52958
  Beta virt. eigenvalues --    1.56371   1.57305   1.59553   1.62699   1.63106
  Beta virt. eigenvalues --    1.63412   1.65532   1.65711   1.67256   1.68229
  Beta virt. eigenvalues --    1.68574   1.69607   1.71676   1.72285   1.73186
  Beta virt. eigenvalues --    1.74566   1.75275   1.76514   1.77986   1.78878
  Beta virt. eigenvalues --    1.79473   1.79741   1.80159   1.80729   1.82214
  Beta virt. eigenvalues --    1.82632   1.84070   1.85103   1.85507   1.86249
  Beta virt. eigenvalues --    1.86663   1.87785   1.89608   1.92466   1.92741
  Beta virt. eigenvalues --    1.93869   1.95130   1.95956   1.97995   1.98488
  Beta virt. eigenvalues --    1.99800   2.00146   2.01858   2.03568   2.03951
  Beta virt. eigenvalues --    2.06128   2.06825   2.07580   2.10409   2.12417
  Beta virt. eigenvalues --    2.13647   2.14825   2.16185   2.17139   2.25057
  Beta virt. eigenvalues --    2.25860   2.28133   2.30061   2.30800   2.33198
  Beta virt. eigenvalues --    2.34681   2.36499   2.38730   2.39432   2.40389
  Beta virt. eigenvalues --    2.41366   2.43089   2.44844   2.47319   2.49156
  Beta virt. eigenvalues --    2.49752   2.53888   2.55221   2.55376   2.58478
  Beta virt. eigenvalues --    2.58789   2.60677   2.63684   2.65318   2.66146
  Beta virt. eigenvalues --    2.68286   2.70779   2.75707   2.75842   2.76863
  Beta virt. eigenvalues --    2.80658   2.82533   2.82744   2.83182   2.84028
  Beta virt. eigenvalues --    2.84244   2.85357   2.86066   2.86927   2.87047
  Beta virt. eigenvalues --    2.87874   2.89530   2.89956   2.91621   2.93048
  Beta virt. eigenvalues --    2.94535   2.94884   2.96409   2.96946   2.98152
  Beta virt. eigenvalues --    2.98494   2.99689   3.03089   3.04040   3.04427
  Beta virt. eigenvalues --    3.06610   3.08253   3.15961   3.18959   3.19505
  Beta virt. eigenvalues --    3.23815   3.26193   3.28172   3.29697   3.31152
  Beta virt. eigenvalues --    3.31924   3.34601   3.35568   3.37234   3.38488
  Beta virt. eigenvalues --    3.40868   3.42189   3.43611   3.44954   3.47813
  Beta virt. eigenvalues --    3.50158   3.53636   3.57125   3.60186   3.63341
  Beta virt. eigenvalues --    3.64832   3.77198   3.95246   4.47077   4.56899
  Beta virt. eigenvalues --    4.62132   4.64225   4.72320   4.74129   4.74739
  Beta virt. eigenvalues --    4.86716   4.91291   5.03034   5.46310   5.81683
  Beta virt. eigenvalues --    5.84340   6.10280  22.21301  22.63208  58.49113
  Beta virt. eigenvalues --   58.49223  58.50332  58.50569  58.50782  58.55786
  Beta virt. eigenvalues --   58.56201  58.56292  58.56521  58.56754  95.62801
  Beta virt. eigenvalues --  106.32197 106.33226 106.40193
          Condensed to atoms (all electrons):
               1          2          3          4          5          6
     1  O    8.659387  -0.003725  -0.091811  -0.001778   0.038544  -0.003582
     2  N   -0.003725   7.365655   0.081838  -0.058926  -0.024500   0.016436
     3  C   -0.091811   0.081838   5.452594   0.246040  -0.113121   0.018541
     4  C   -0.001778  -0.058926   0.246040   5.175891   0.614499  -0.031024
     5  C    0.038544  -0.024500  -0.113121   0.614499   5.429416   0.191851
     6  C   -0.003582   0.016436   0.018541  -0.031024   0.191851   5.224533
     7  S   -0.000762   0.005300  -0.000002  -0.002796  -0.133480   0.258798
     8  C   -0.074086   0.053710  -0.137752  -0.066574   0.201826  -0.076845
     9  C   -0.010160  -0.088797   0.006790  -0.002359  -0.070356   0.010165
    10  C   -0.012104  -0.085276   0.017952  -0.011206  -0.072606   0.004285
    11  C   -0.008536  -0.105467   0.305304  -0.041079  -0.004612  -0.002680
    12  C   -0.000953  -0.088749   0.311474  -0.075594  -0.008388  -0.001446
    13  H   -0.000566   0.002556  -0.035243   0.405534  -0.048877  -0.001747
    14  H    0.000076  -0.002693   0.003781   0.024319  -0.084525   0.420414
    15  H    0.000098  -0.002331  -0.000402   0.004676  -0.062928   0.407650
    16  H   -0.001000   0.018248  -0.002625   0.002833  -0.001698  -0.000418
    17  H   -0.000671   0.005395  -0.000385   0.001128  -0.005509   0.002325
    18  H    0.007364  -0.021490   0.001131  -0.000907   0.008220  -0.001027
    19  H    0.008015  -0.027654  -0.001375  -0.001526   0.020562  -0.001467
    20  H   -0.000341   0.005648  -0.000700   0.001370  -0.004276   0.002679
    21  H   -0.000711   0.003651   0.000698   0.001058   0.001267   0.002835
    22  H   -0.000500   0.001476  -0.058366   0.000884   0.008465  -0.000730
    23  H   -0.000255   0.005589  -0.047942   0.003275   0.001008  -0.000040
    24  H    0.006164  -0.024274  -0.031973   0.014612  -0.002518   0.000094
    25  H    0.007891  -0.028633  -0.028017   0.016151  -0.000998   0.000026
    26  H   -0.000921   0.010773  -0.048575  -0.001338  -0.000284  -0.000017
    27  H   -0.000525   0.014330  -0.062127  -0.005407   0.004154  -0.000622
    28  S    0.000015  -0.002642   0.001048  -0.030125  -0.009089  -0.003935
    29  O    0.000001   0.006753  -0.005574   0.027699   0.013680   0.005167
    30  O    0.000093   0.000119  -0.007768   0.024961   0.023037  -0.023984
    31  C    0.000001   0.000254  -0.000759   0.002642   0.005069  -0.000430
    32  H    0.000000  -0.000010   0.000030  -0.000087  -0.000523   0.000223
    33  H   -0.000000   0.000006   0.000013  -0.000033   0.000148   0.000176
    34  H    0.000000  -0.000003  -0.000020  -0.000423  -0.000053  -0.000397
               7          8          9         10         11         12
     1  O   -0.000762  -0.074086  -0.010160  -0.012104  -0.008536  -0.000953
     2  N    0.005300   0.053710  -0.088797  -0.085276  -0.105467  -0.088749
     3  C   -0.000002  -0.137752   0.006790   0.017952   0.305304   0.311474
     4  C   -0.002796  -0.066574  -0.002359  -0.011206  -0.041079  -0.075594
     5  C   -0.133480   0.201826  -0.070356  -0.072606  -0.004612  -0.008388
     6  C    0.258798  -0.076845   0.010165   0.004285  -0.002680  -0.001446
     7  S   15.874809  -0.001854   0.002533  -0.000767  -0.000230   0.000982
     8  C   -0.001854   5.452913   0.326293   0.320906   0.014281   0.022196
     9  C    0.002533   0.326293   5.011741  -0.084614  -0.005172   0.004779
    10  C   -0.000767   0.320906  -0.084614   5.031103   0.005083  -0.006208
    11  C   -0.000230   0.014281  -0.005172   0.005083   5.028540  -0.080219
    12  C    0.000982   0.022196   0.004779  -0.006208  -0.080219   5.023675
    13  H    0.000013   0.012767  -0.000915  -0.001548  -0.001009   0.003211
    14  H   -0.041705   0.003117  -0.000021  -0.001843  -0.000201  -0.000051
    15  H   -0.042330   0.007886  -0.001083   0.005904   0.000302  -0.000057
    16  H    0.000497  -0.065793   0.412857   0.009222   0.000131  -0.001273
    17  H    0.000880  -0.033408   0.398778  -0.004241   0.000165  -0.000168
    18  H    0.000253  -0.035624   0.411333  -0.004225   0.000030  -0.000291
    19  H    0.000105  -0.040625  -0.002337   0.416775  -0.000086   0.000026
    20  H   -0.000435  -0.038630  -0.003743   0.401945  -0.000062   0.000133
    21  H   -0.000925  -0.056945   0.008476   0.409639  -0.001087  -0.000042
    22  H   -0.000001  -0.002499   0.000091  -0.001318   0.412299   0.008638
    23  H    0.000004  -0.000983   0.000121  -0.000057   0.406662  -0.002392
    24  H   -0.000014   0.000954  -0.000123  -0.000067   0.412249  -0.003840
    25  H   -0.000051  -0.003059  -0.000202   0.000095  -0.004219   0.408889
    26  H   -0.000004  -0.001053  -0.000144   0.000208  -0.002544   0.405965
    27  H   -0.000003   0.000344  -0.001269   0.000059   0.009053   0.411976
    28  S    0.310404   0.004830  -0.003875  -0.000173  -0.000670   0.002320
    29  O   -0.074510  -0.009813  -0.000535   0.000158   0.000241  -0.007228
    30  O   -0.082356  -0.004717   0.000754   0.000040   0.000999   0.000716
    31  C   -0.052793  -0.001317   0.000274   0.000052   0.000050  -0.000219
    32  H   -0.000840   0.000155  -0.000076  -0.000002  -0.000000  -0.000008
    33  H    0.001581  -0.000040  -0.000001   0.000001  -0.000000  -0.000006
    34  H    0.002380   0.000121   0.000001  -0.000001  -0.000000   0.000010
              13         14         15         16         17         18
     1  O   -0.000566   0.000076   0.000098  -0.001000  -0.000671   0.007364
     2  N    0.002556  -0.002693  -0.002331   0.018248   0.005395  -0.021490
     3  C   -0.035243   0.003781  -0.000402  -0.002625  -0.000385   0.001131
     4  C    0.405534   0.024319   0.004676   0.002833   0.001128  -0.000907
     5  C   -0.048877  -0.084525  -0.062928  -0.001698  -0.005509   0.008220
     6  C   -0.001747   0.420414   0.407650  -0.000418   0.002325  -0.001027
     7  S    0.000013  -0.041705  -0.042330   0.000497   0.000880   0.000253
     8  C    0.012767   0.003117   0.007886  -0.065793  -0.033408  -0.035624
     9  C   -0.000915  -0.000021  -0.001083   0.412857   0.398778   0.411333
    10  C   -0.001548  -0.001843   0.005904   0.009222  -0.004241  -0.004225
    11  C   -0.001009  -0.000201   0.000302   0.000131   0.000165   0.000030
    12  C    0.003211  -0.000051  -0.000057  -0.001273  -0.000168  -0.000291
    13  H    0.508780   0.002253  -0.000014  -0.000030  -0.000001   0.000004
    14  H    0.002253   0.490639  -0.014295  -0.000040  -0.000016   0.000001
    15  H   -0.000014  -0.014295   0.530508   0.000092  -0.000055   0.000013
    16  H   -0.000030  -0.000040   0.000092   0.537177  -0.019922  -0.015412
    17  H   -0.000001  -0.000016  -0.000055  -0.019922   0.566201  -0.020837
    18  H    0.000004   0.000001   0.000013  -0.015412  -0.020837   0.529015
    19  H    0.000005   0.000004  -0.000034  -0.000014  -0.000259   0.001888
    20  H    0.000002   0.000013  -0.000148   0.000079   0.001203  -0.000160
    21  H   -0.000020   0.000003  -0.000185  -0.000139   0.000086   0.000037
    22  H    0.000161   0.000004   0.000001  -0.000001  -0.000000  -0.000000
    23  H    0.000577   0.000000   0.000000   0.000000  -0.000000   0.000000
    24  H    0.000001   0.000000  -0.000000  -0.000000   0.000000  -0.000002
    25  H   -0.000030  -0.000000   0.000000   0.000007   0.000000  -0.000007
    26  H    0.000100  -0.000001   0.000000   0.000007  -0.000000  -0.000000
    27  H   -0.000190  -0.000002   0.000000   0.000224   0.000009   0.000001
    28  S    0.002946  -0.013252   0.003117  -0.000962  -0.000904   0.000348
    29  O   -0.000323   0.000944  -0.000801  -0.000023   0.000160   0.000007
    30  O   -0.000821   0.011284  -0.001305   0.000085   0.000026  -0.000010
    31  C   -0.000097   0.000422  -0.000080   0.000035   0.000046  -0.000002
    32  H    0.000000   0.000005  -0.000000  -0.000000  -0.000000   0.000000
    33  H    0.000000  -0.000011   0.000000   0.000000   0.000000  -0.000000
    34  H    0.000001   0.000028  -0.000000  -0.000000  -0.000000   0.000000
              19         20         21         22         23         24
     1  O    0.008015  -0.000341  -0.000711  -0.000500  -0.000255   0.006164
     2  N   -0.027654   0.005648   0.003651   0.001476   0.005589  -0.024274
     3  C   -0.001375  -0.000700   0.000698  -0.058366  -0.047942  -0.031973
     4  C   -0.001526   0.001370   0.001058   0.000884   0.003275   0.014612
[...]
     7  S   -0.022683   0.000767
     8  C    0.229314  -0.034292
     9  C    0.058978   0.020691
    10  C    0.039696   0.022487
    11  C    0.044466   0.021097
    12  C    0.055233   0.021623
    28  S    0.891262  -0.000074
    29  O   -0.510558   0.000025
    30  O   -0.570888   0.000055
    31  C    0.151037  -0.000003
 Electronic spatial extent (au):  <R**2>=           4773.8998
 Charge=             -0.0000 electrons
 Dipole moment (field-independent basis, Debye):
    X=              4.2577    Y=              1.8593    Z=             -2.0311  Tot=              5.0705
 Quadrupole moment (field-independent basis, Debye-Ang):
   XX=           -108.3309   YY=           -109.0692   ZZ=           -115.8907
   XY=              5.7477   XZ=              6.2957   YZ=             -0.6163
 Traceless Quadrupole moment (field-independent basis, Debye-Ang):
   XX=              2.7661   YY=              2.0277   ZZ=             -4.7938
   XY=              5.7477   XZ=              6.2957   YZ=             -0.6163
 Octapole moment (field-independent basis, Debye-Ang**2):
  XXX=            190.5624  YYY=             -3.8100  ZZZ=              0.3951  XYY=            -14.2457
  XXY=             -7.8011  XXZ=             -8.1584  XZZ=             -1.1055  YZZ=              6.0480
  YYZ=             -2.3126  XYZ=              0.5271
 Hexadecapole moment (field-independent basis, Debye-Ang**3):
 XXXX=          -3994.6160 YYYY=          -1374.6524 ZZZZ=           -667.0732 XXXY=            -13.5350
 XXXZ=            119.5545 YYYX=            -15.5433 YYYZ=              0.8266 ZZZX=            -12.0995
 ZZZY=             -1.7843 XXYY=           -938.4034 XXZZ=           -855.2700 YYZZ=           -347.5167
 XXYZ=             -4.2803 YYXZ=             -4.4318 ZZXY=             14.8644
 N-N= 1.520625135324D+03 E-N=-6.496627593914D+03  KE= 1.459864116306D+03
                          Isotropic Fermi Contact Couplings
        Atom                 a.u.       MegaHertz       Gauss      10(-4) cm-1
     1  O(17)              0.08658     -52.48331     -18.72735     -17.50655
     2  N(14)              0.10872      35.12670      12.53408      11.71701
     3  C(13)             -0.01440     -16.19280      -5.77799      -5.40134
     4  C(13)              0.00046       0.51423       0.18349       0.17153
     5  C(13)             -0.00018      -0.19864      -0.07088      -0.06626
     6  C(13)             -0.00050      -0.56591      -0.20193      -0.18877
     7  S(33)             -0.00000      -0.00073      -0.00026      -0.00024
     8  C(13)             -0.01428     -16.05013      -5.72708      -5.35375
     9  C(13)              0.01757      19.75043       7.04744       6.58803
    10  C(13)              0.01269      14.26171       5.08893       4.75720
    11  C(13)              0.01141      12.83091       4.57839       4.27993
    12  C(13)              0.01870      21.01936       7.50023       7.01131
    13  H(1)              -0.00024      -1.06228      -0.37905      -0.35434
    14  H(1)              -0.00003      -0.15138      -0.05402      -0.05049
    15  H(1)               0.00006       0.26321       0.09392       0.08780
    16  H(1)              -0.00032      -1.44848      -0.51685      -0.48316
    17  H(1)               0.00044       1.97005       0.70296       0.65714
    18  H(1)              -0.00050      -2.21673      -0.79098      -0.73942
    19  H(1)              -0.00051      -2.27502      -0.81179      -0.75887
    20  H(1)               0.00020       0.88654       0.31634       0.29572
    21  H(1)              -0.00039      -1.76514      -0.62984      -0.58879
    22  H(1)              -0.00039      -1.73787      -0.62012      -0.57969
    23  H(1)               0.00014       0.64670       0.23076       0.21571
    24  H(1)              -0.00047      -2.11065      -0.75313      -0.70404
    25  H(1)              -0.00048      -2.15850      -0.77021      -0.72000
    26  H(1)               0.00049       2.19157       0.78200       0.73103
    27  H(1)              -0.00033      -1.48330      -0.52928      -0.49477
    28  S(33)             -0.00002      -0.00517      -0.00184      -0.00172
    29  O(17)             -0.00001       0.00490       0.00175       0.00163
    30  O(17)             -0.00001       0.00688       0.00246       0.00230
    31  C(13)              0.00001       0.01498       0.00535       0.00500
    32  H(1)              -0.00000      -0.00069      -0.00025      -0.00023
    33  H(1)               0.00000       0.00695       0.00248       0.00232
    34  H(1)               0.00000       0.00049       0.00017       0.00016
 --------------------------------------------------------
       Center         ----  Spin Dipole Couplings  ----
                      3XX-RR        3YY-RR        3ZZ-RR
 --------------------------------------------------------
     1   Atom       -0.639903     -0.913902      1.553805
     2   Atom       -0.322160     -0.568173      0.890333
     3   Atom       -0.007875      0.010380     -0.002505
     4   Atom        0.007256     -0.005581     -0.001675
     5   Atom        0.009775     -0.006865     -0.002910
     6   Atom        0.002040     -0.001315     -0.000725
     7   Atom        0.003365     -0.001479     -0.001885
     8   Atom        0.000036      0.005680     -0.005716
     9   Atom       -0.010376      0.002330      0.008046
    10   Atom       -0.006783      0.016777     -0.009994
    11   Atom        0.002523      0.000166     -0.002688
    12   Atom       -0.016478      0.018842     -0.002365
    13   Atom        0.001603     -0.001182     -0.000421
    14   Atom        0.001401     -0.001228     -0.000173
    15   Atom        0.001131     -0.000666     -0.000466
    16   Atom        0.003490     -0.003296     -0.000194
    17   Atom        0.000391      0.002183     -0.002574
    18   Atom       -0.002352      0.003942     -0.001590
    19   Atom       -0.005029      0.010461     -0.005432
    20   Atom       -0.001153      0.003905     -0.002752
    21   Atom       -0.005329      0.000403      0.004925
    22   Atom       -0.005119     -0.002170      0.007290
    23   Atom       -0.002528      0.003467     -0.000939
    24   Atom       -0.002540      0.005348     -0.002809
    25   Atom       -0.004354      0.008568     -0.004214
    26   Atom       -0.002612      0.005244     -0.002632
    27   Atom        0.000173      0.001748     -0.001921
    28   Atom        0.001436     -0.000736     -0.000700
    29   Atom        0.001511     -0.000710     -0.000801
    30   Atom        0.001131     -0.000626     -0.000505
    31   Atom        0.000679     -0.000337     -0.000342
    32   Atom        0.000630     -0.000314     -0.000316
    33   Atom        0.000525     -0.000252     -0.000273
    34   Atom        0.000554     -0.000287     -0.000267
 --------------------------------------------------------
                        XY            XZ            YZ
 --------------------------------------------------------
     1   Atom       -0.184188      1.057433     -0.480214
     2   Atom       -0.128035      0.656523     -0.288099
     3   Atom       -0.006920     -0.002649      0.008593
     4   Atom       -0.006190     -0.006302      0.003675
     5   Atom        0.002083     -0.006916     -0.001857
     6   Atom        0.000903     -0.001867     -0.000429
     7   Atom        0.001569      0.000514      0.000371
     8   Atom        0.012298     -0.003212     -0.004664
     9   Atom        0.010778      0.008674      0.021761
    10   Atom       -0.012648      0.005516     -0.018072
    11   Atom        0.013884      0.014029      0.017089
    12   Atom       -0.005486      0.001180     -0.022319
    13   Atom       -0.002590     -0.002940      0.001951
    14   Atom        0.000295     -0.001662     -0.000238
    15   Atom        0.001534     -0.001639     -0.000969
    16   Atom        0.003913      0.007374      0.001988
    17   Atom        0.005114      0.000612      0.001018
    18   Atom        0.004884      0.002152      0.008027
    19   Atom       -0.000851     -0.001367     -0.005589
    20   Atom        0.003157     -0.000997     -0.003351
    21   Atom        0.000763      0.000185     -0.007263
    22   Atom        0.000801      0.002929      0.005514
    23   Atom       -0.000827      0.000019      0.004779
    24   Atom        0.005332      0.001717      0.007411
    25   Atom       -0.001209     -0.001135     -0.005706
    26   Atom       -0.003461     -0.000558      0.000620
    27   Atom       -0.006321      0.005192     -0.003963
    28   Atom       -0.000185     -0.000198      0.000029
    29   Atom       -0.000545      0.000326     -0.000077
    30   Atom       -0.000331     -0.000569      0.000140
    31   Atom       -0.000039     -0.000053      0.000001
    32   Atom        0.000043      0.000066      0.000003
    33   Atom       -0.000120     -0.000026      0.000004
    34   Atom        0.000026     -0.000142     -0.000004
 --------------------------------------------------------


 ---------------------------------------------------------------------------------
              Anisotropic Spin Dipole Couplings in Principal Axis System
 ---------------------------------------------------------------------------------

       Atom             a.u.   MegaHertz   Gauss  10(-4) cm-1        Axes

              Baa    -1.0678    77.265    27.570    25.773  0.9108 -0.1314 -0.3914
     1 O(17)  Bbb    -1.0014    72.459    25.855    24.170  0.1866  0.9767  0.1063
              Bcc     2.0692  -149.724   -53.425   -49.942  0.3683 -0.1699  0.9140
 
              Baa    -0.6236   -24.050    -8.582    -8.022  0.1813  0.9775  0.1074
     2 N(14)  Bbb    -0.6093   -23.500    -8.385    -7.839  0.9006 -0.1211 -0.4175
              Bcc     1.2329    47.550    16.967    15.861  0.3951 -0.1724  0.9023
 
              Baa    -0.0102    -1.371    -0.489    -0.457  0.9395  0.3383 -0.0542
     3 C(13)  Bbb    -0.0067    -0.894    -0.319    -0.298  0.1890 -0.3798  0.9055
              Bcc     0.0169     2.265     0.808     0.755 -0.2857  0.8610  0.4208
 
              Baa    -0.0084    -1.123    -0.401    -0.375  0.2615  0.9285 -0.2636
     4 C(13)  Bbb    -0.0049    -0.656    -0.234    -0.219  0.4992  0.1036  0.8603
              Bcc     0.0133     1.779     0.635     0.593  0.8261 -0.3566 -0.4364
 
              Baa    -0.0076    -1.026    -0.366    -0.342  0.0760  0.8856  0.4582
     5 C(13)  Bbb    -0.0055    -0.741    -0.264    -0.247  0.4185 -0.4454  0.7915
              Bcc     0.0132     1.767     0.631     0.589  0.9050  0.1316 -0.4045
 
              Baa    -0.0017    -0.224    -0.080    -0.075  0.4750 -0.1637  0.8646
     6 C(13)  Bbb    -0.0015    -0.206    -0.073    -0.069 -0.1150  0.9626  0.2455
              Bcc     0.0032     0.430     0.153     0.143  0.8724  0.2161 -0.4384
 
              Baa    -0.0022    -0.088    -0.032    -0.029  0.1316 -0.6948  0.7071
     7 S(33)  Bbb    -0.0017    -0.071    -0.025    -0.024 -0.2735  0.6601  0.6996
              Bcc     0.0039     0.160     0.057     0.053  0.9528  0.2855  0.1031
 
              Baa    -0.0098    -1.317    -0.470    -0.439  0.7553 -0.6408 -0.1372
     8 C(13)  Bbb    -0.0071    -0.949    -0.339    -0.317  0.2598  0.1007  0.9604
              Bcc     0.0169     2.266     0.809     0.756  0.6016  0.7611 -0.2425
 
              Baa    -0.0183    -2.450    -0.874    -0.817 -0.5255  0.7325 -0.4328
     9 C(13)  Bbb    -0.0133    -1.787    -0.638    -0.596  0.7924  0.2362 -0.5624
              Bcc     0.0316     4.237     1.512     1.413  0.3097  0.6384  0.7046
 
              Baa    -0.0192    -2.572    -0.918    -0.858  0.0931  0.4732  0.8760
    10 C(13)  Bbb    -0.0117    -1.576    -0.563    -0.526  0.9346  0.2619 -0.2407
              Bcc     0.0309     4.149     1.480     1.384 -0.3433  0.8411 -0.4178
 
              Baa    -0.0185    -2.482    -0.886    -0.828 -0.0946 -0.6331  0.7683
    11 C(13)  Bbb    -0.0115    -1.547    -0.552    -0.516  0.8071 -0.5006 -0.3131
              Bcc     0.0300     4.030     1.438     1.344  0.5828  0.5904  0.5583
 
              Baa    -0.0187    -2.509    -0.895    -0.837  0.7525  0.4143  0.5119
    12 C(13)  Bbb    -0.0148    -1.987    -0.709    -0.663 -0.6502  0.3435  0.6777
              Bcc     0.0335     4.496     1.604     1.500 -0.1050  0.8428 -0.5279
 
              Baa    -0.0028    -1.503    -0.536    -0.502  0.2088  0.8680 -0.4506
    13 H(1)   Bbb    -0.0025    -1.334    -0.476    -0.445  0.6556  0.2177  0.7231
              Bcc     0.0053     2.837     1.012     0.946  0.7257 -0.4464 -0.5236
 
              Baa    -0.0013    -0.690    -0.246    -0.230  0.2138  0.8416  0.4960
    14 H(1)   Bbb    -0.0012    -0.639    -0.228    -0.213  0.4985 -0.5307  0.6855
              Bcc     0.0025     1.329     0.474     0.443  0.8401  0.1007 -0.5330
 
              Baa    -0.0016    -0.829    -0.296    -0.277 -0.3102  0.8926  0.3272
    15 H(1)   Bbb    -0.0015    -0.795    -0.284    -0.265  0.5694 -0.1012  0.8158
              Bcc     0.0030     1.624     0.579     0.542  0.7613  0.4394 -0.4769
 
              Baa    -0.0063    -3.380    -1.206    -1.128  0.6462 -0.4118 -0.6425
    16 H(1)   Bbb    -0.0043    -2.269    -0.810    -0.757  0.0462  0.8615 -0.5057
              Bcc     0.0106     5.650     2.016     1.885  0.7618  0.2971  0.5757
 
              Baa    -0.0039    -2.098    -0.749    -0.700  0.7461 -0.6488  0.1498
    17 H(1)   Bbb    -0.0027    -1.438    -0.513    -0.480 -0.1961  0.0010  0.9806
              Bcc     0.0066     3.537     1.262     1.180  0.6363  0.7610  0.1265
 
              Baa    -0.0076    -4.072    -1.453    -1.358  0.2800 -0.6241  0.7295
    18 H(1)   Bbb    -0.0040    -2.133    -0.761    -0.711  0.8933 -0.1088 -0.4360
              Bcc     0.0116     6.204     2.214     2.069  0.3514  0.7737  0.5271
 
              Baa    -0.0080    -4.277    -1.526    -1.427  0.4638  0.2760  0.8419
    19 H(1)   Bbb    -0.0042    -2.253    -0.804    -0.751  0.8857 -0.1194 -0.4487
              Bcc     0.0122     6.530     2.330     2.178 -0.0233  0.9537 -0.2998
 
              Baa    -0.0042    -2.237    -0.798    -0.746 -0.1524  0.4281  0.8908
    20 H(1)   Bbb    -0.0025    -1.332    -0.475    -0.444  0.9090 -0.2931  0.2964
              Bcc     0.0067     3.569     1.273     1.190  0.3880  0.8549 -0.3444
 
              Baa    -0.0059    -3.142    -1.121    -1.048  0.7940 -0.4983 -0.3482
    21 H(1)   Bbb    -0.0044    -2.341    -0.835    -0.781  0.6076  0.6321  0.4809
              Bcc     0.0103     5.483     1.957     1.829 -0.0195 -0.5934  0.8047
 
              Baa    -0.0059    -3.146    -1.123    -1.049  0.9093  0.2715 -0.3155
    22 H(1)   Bbb    -0.0045    -2.405    -0.858    -0.802 -0.3705  0.8733 -0.3163
              Bcc     0.0104     5.551     1.981     1.852  0.1897  0.4044  0.8947
 
              Baa    -0.0041    -2.206    -0.787    -0.736 -0.2835 -0.5323  0.7977
    23 H(1)   Bbb    -0.0024    -1.303    -0.465    -0.435  0.9560 -0.0916  0.2787
              Bcc     0.0066     3.510     1.252     1.171 -0.0753  0.8416  0.5348
 
              Baa    -0.0076    -4.077    -1.455    -1.360  0.3411 -0.5676  0.7493
    24 H(1)   Bbb    -0.0042    -2.230    -0.796    -0.744  0.8695 -0.1125 -0.4810
              Bcc     0.0118     6.307     2.250     2.104  0.3573  0.8156  0.4551
 
              Baa    -0.0072    -3.833    -1.368    -1.279  0.4698  0.3323  0.8178
    25 H(1)   Bbb    -0.0036    -1.918    -0.685    -0.640  0.8815 -0.1259 -0.4552
              Bcc     0.0108     5.752     2.052     1.919 -0.0482  0.9347 -0.3521
 
              Baa    -0.0040    -2.129    -0.760    -0.710  0.9170  0.3285  0.2264
    26 H(1)   Bbb    -0.0026    -1.401    -0.500    -0.467 -0.1833 -0.1571  0.9704
              Bcc     0.0066     3.530     1.260     1.178 -0.3544  0.9313  0.0838
 
              Baa    -0.0064    -3.440    -1.228    -1.148  0.7432  0.2792 -0.6080
    27 H(1)   Bbb    -0.0042    -2.230    -0.796    -0.744  0.2627  0.7140  0.6490
              Bcc     0.0106     5.671     2.023     1.892 -0.6153  0.6421 -0.4573
 
              Baa    -0.0008    -0.031    -0.011    -0.010  0.0531  0.9520 -0.3015
    28 S(33)  Bbb    -0.0007    -0.029    -0.010    -0.010  0.1126  0.2943  0.9491
              Bcc     0.0015     0.060     0.022     0.020  0.9922 -0.0843 -0.0916
 
              Baa    -0.0008     0.061     0.022     0.020 -0.1099  0.1155  0.9872
    29 O(17)  Bbb    -0.0008     0.061     0.022     0.020  0.2368  0.9677 -0.0868
              Bcc     0.0017    -0.122    -0.043    -0.041  0.9653 -0.2242  0.1337
 
              Baa    -0.0007     0.052     0.019     0.017 -0.0767  0.7326 -0.6763
    30 O(17)  Bbb    -0.0007     0.047     0.017     0.016  0.3370  0.6574  0.6740
              Bcc     0.0014    -0.099    -0.035    -0.033  0.9384 -0.1762 -0.2973
 
              Baa    -0.0003    -0.046    -0.017    -0.015  0.0548  0.0868  0.9947
    31 C(13)  Bbb    -0.0003    -0.045    -0.016    -0.015  0.0339  0.9955 -0.0887
              Bcc     0.0007     0.092     0.033     0.031  0.9979 -0.0386 -0.0516
 
              Baa    -0.0003    -0.171    -0.061    -0.057 -0.0701  0.0277  0.9972
    32 H(1)   Bbb    -0.0003    -0.169    -0.060    -0.056 -0.0436  0.9986 -0.0308
              Bcc     0.0006     0.340     0.121     0.113  0.9966  0.0457  0.0688
 
              Baa    -0.0003    -0.146    -0.052    -0.049  0.0350  0.0183  0.9992
    33 H(1)   Bbb    -0.0003    -0.144    -0.051    -0.048  0.1490  0.9886 -0.0233
              Bcc     0.0005     0.290     0.104     0.097  0.9882 -0.1497 -0.0319
 
              Baa    -0.0003    -0.155    -0.055    -0.052  0.1676 -0.1142  0.9792
    34 H(1)   Bbb    -0.0003    -0.153    -0.055    -0.051 -0.0105  0.9930  0.1176
              Bcc     0.0006     0.309     0.110     0.103  0.9858  0.0299 -0.1652
 

 ---------------------------------------------------------------------------------

 No NMR shielding tensors so no spin-rotation constants.
 Leave Link  601 at Wed Jun 12 15:32:00 2019, MaxMem=  8053063680 cpu:               0.0 elap:               0.3
 (Enter /data2/g16/g16/l9999.exe)
 1\1\GINC-CU02\SP\UPBE1PBE\Gen\C10H18N1O3S2(2)\ROOT\12-Jun-2019\0\\#p g
 en 6d pbe1pbe\\start preoptimized\\0,2\O,0,-3.770982,0.210249,0.856701
 \N,0,-2.604931,0.034069,0.388221\C,0,-2.159833,-1.267829,-0.155232\C,0
 ,-0.883083,-0.848792,-0.823939\C,0,-0.606804,0.449974,-0.659188\C,0,0.
 604445,1.126076,-1.199688\S,0,1.941867,1.440161,0.033285\C,0,-1.691106
 ,1.165435,0.118041\C,0,-1.229336,1.76711,1.449311\C,0,-2.428699,2.2172
 54,-0.714614\C,0,-3.217301,-1.806744,-1.12268\C,0,-1.909442,-2.261264,
 0.984931\H,0,-0.244433,-1.557674,-1.344213\H,0,1.061089,0.539949,-2.00
 4342\H,0,0.389048,2.130395,-1.583368\H,0,-0.656815,1.04074,2.035919\H,
 0,-0.600983,2.649265,1.288761\H,0,-2.112628,2.071391,2.022322\H,0,-3.3
 18992,2.541735,-0.169646\H,0,-1.791885,3.09193,-0.889869\H,0,-2.740398
 ,1.806468,-1.681586\H,0,-3.379885,-1.113758,-1.952764\H,0,-2.903784,-2
 .772133,-1.528776\H,0,-4.164369,-1.937848,-0.586238\H,0,-2.834551,-2.4
 10814,1.55417\H,0,-1.584377,-3.227213,0.584768\H,0,-1.131209,-1.88965,
 1.662599\S,0,2.759123,-0.535188,0.110576\O,0,2.337632,-1.21349,1.35342
 4\O,0,2.508839,-1.184762,-1.203259\C,0,4.510088,-0.16758,0.248546\H,0,
 4.658952,0.450218,1.134487\H,0,5.000013,-1.137987,0.365306\H,0,4.83039
 8,0.335114,-0.665695\\Version=AM64L-G16RevB.01\State=2-A\HF=-1467.5482
 233\S2=0.755035\S2-1=0.\S2A=0.750017\RMSD=8.945e-09\Dipole=1.6794691,0
 .727793,-0.7933138\Quadrupole=2.0507966,1.48571,-3.5365066,4.2686235,4
 .7005538,-0.4528642\PG=C01 [X(C10H18N1O3S2)]\\@


 HONESTY IN A LAWYER IS LIKE A HEN'S HIND LEGS.
  -- MAGNUS OLESON, LAKE WOBEGON PATRIARCH, C.1875
 Elapsed time:       0 days  0 hours  3 minutes  2.5 seconds.
 File lengths (MBytes):  RWF=    181 Int=      0 D2E=      0 Chk=     15 Scr=      1
 Normal termination of Gaussian 16 at Wed Jun 12 15:32:00 2019.
