 Entering Gaussian System, Link 0=g16
 AtFile(1): /home/malgo/Basis_sets/n07d_pbe0.gbs
            -H 0
             6-31G
             S   1 1.00       0.000000000000
                  0.4000000000D+00  0.10000000D+01
             P   1 1.00       0.000000000000
                  0.7500000000D+00  0.10000000D+01
             ****
             -He 0
             6-31+G**
             ****
             -Li 0
             6-31+G**
             ****
             -Be 0
             6-31+G**
             ****
             -B 0
             6-31G
             S   1 1.00       0.000000000000
                  0.7000000000D+01  0.1000000000D+01
             P   1 1.00       0.000000000000
                  0.3500000000D-01  0.1000000000D+01
             D   1 1.00
                  0.3430000000D+00  0.1000000000D+01
             ****
             -C 0
             6-31G
             S   1 1.00       0.000000000000
                  0.8700000000D+01  0.1000000000D+01
             P   1 1.00       0.000000000000
                  0.5000000000D-01  0.1000000000D+01
             D   1 1.00
                  0.8200000000D+00  0.1000000000D+01
             ****
             -N 0
             6-31G
             S   1 1.00       0.000000000000
                  0.1370000000D+02  0.1000000000D+01
             P   1 1.00       0.000000000000
                  0.5300000000D-01  0.1000000000D+01
             D   1 1.00       0.000000000000
                  0.1015000000D+01  0.1000000000D+01
             ****
             -O 0
             6-31G
             S   1 1.00
                  0.1600000000D+02  0.1000000000D+01
             P   1 1.00       0.000000000000
                  0.6500000000D-01  0.1000000000D+01
             D   1 1.00        0.000000000000
                  0.1190000000D+01  0.1000000000D+01
             D   1 1.00        0.000000000000
                  0.1800000000D+00  0.1000000000D+01
             ****
             -F 0
             6-31G
             S   1 1.00
                  0.1770000000D+02  0.1000000000D+01
             P   1 1.00       0.000000000000
                  0.8300000000D-01  0.1000000000D+01
             D   1 1.00       0.000000000000
                  1.3700000000D+00  0.1000000000D+01
             D   1 1.00       0.000000000000
                  0.2300000000D+00  0.1000000000D+01
             ****
             -Ne 0
             6-31+G**
             ****
             -Na 0
             6-31+G**
             ****
             -Mg 0
             6-31+G**
             ****
             -Al 0
             6-31G
             S   1 1.00      0.000000000000
                  0.3100000000D+01  0.1000000000D+01
             P   1 1.00      0.000000000000
                  0.1500000000D-01  0.1000000000D+01
             D   1 1.00      0.000000000000
                  0.1890000000D+00  0.1000000000D+01
             ****
             -Si 0
             6-31G
             S   1 1.00      0.000000000000
                  0.5000000000D+01  0.1000000000D+01
             P   1 1.00       0.000000000000
                  0.3300000000D-01  0.1000000000D+01
             D   1 1.0        0.000000000000
                  0.2750000000D+00  0.1000000000D+01
             ****
             -P  0
             6-31G
             S   1 1.00       0.000000000000
                  0.6300000000D+01  0.1000000000D+01
             P   1 1.00       0.000000000000
                  0.3500000000D-01  0.1000000000D+01
             D   1 1.00       0.000000000000
                  0.3730000000D+00  0.1000000000D+01
             ****
             -S  0
             6-31G
             S   1  1.00      0.000000000000
                  0.7500000000D+01  0.1000000000D+01
             P   1 1.00       0.000000000000
                  0.4100000000D-01  0.1000000000D+01
             D   1 1.00       0.000000000000
                  0.4790000000D+00  0.1000000000D+01
             ****
            -Cl 0
             6-31G
             S   1 1.00       0.000000000000
                  0.8500000000D+01  0.1000000000D+01
             P   1 1.00       0.000000000000
                  0.4800000000D-01  0.1000000000D+01
             D   1 1.00       0.000000000000
                  0.6000000000D+00  0.1000000000D+01
             D   1 1.00       0.000000000000
                  0.1960000000D+00  0.1000000000D+01
             ****
            -Br 0
             S   3 1.00       0.000000000000
                  0.4721881000D+01  0.1749732514D+00
                  0.2257555000D+01 -0.7074172290D+00
                  0.3896080000D+00  0.1258999543D+01
             S   1 1.00       0.000000000000
                  0.1471340000D+00  0.1000000000D+01
             P   3 1.00       0.000000000000
                  0.1896942000D+01 -0.2464576731D+00
                  0.9108990000D+00  0.3623179892D+00
                  0.3168550000D+00  0.8338469725D+00
             P   1 1.00       0.000000000000
                  0.1095030000D+00  0.1000000000D+01
             P   1 1.00       0.000000000000
                  0.3609700000D-01  0.1000000000D+01
             D   1 1.00
                  0.4750000000D+00  0.1000000000D+01
             D   1 1.00
                  0.1280000000D+00  0.1000000000D+01
             ****
            -I   0
             S   3 1.00       0.000000000000
                  0.2122765000D+01  0.2063429899D+01
                  0.1770481000D+01 -0.2869526473D+01
                  0.3130840000D+00  0.1404747074D+01
             S   1 1.00       0.000000000000
                  0.1320000000D+00  0.1000000000D+01
             P   3 1.00       0.000000000000
                  0.2432887000D+01  0.7732753148D+00
                  0.2137249000D+01 -0.1020833156D+01
                  0.3145460000D+00  0.1095666871D+01
             P   1 1.00       0.000000000000
                  0.1049450000D+00  0.1000000000D+01
             P   1 1.00       0.000000000000
                  0.3264100000D-01  0.1000000000D+01
             D   1 1.00
                  0.300000000          1.00000000
             D   1 1.00
                  0.090000000          1.00000000
             ****
             -Zn 0
             SP   6 1.00       0.000000000000
                  0.6936492000D+02 -0.4440098182D-02 -0.7689261805D-02
                  0.2362082000D+02  0.7505253308D-01 -0.2997981924D-01
                  0.1018471000D+02  0.2533111104D+00  0.7082410821D-01
                  0.4334082000D+01 -0.2881897118D+00  0.4046140897D+00
                  0.1810918000D+01 -0.7267052298D+00  0.4882324876D+00
                  0.7148410000D+00 -0.2133439088D+00  0.1751969956D+00
             SP   3 1.00       0.000000000000
                  0.2823842000D+01  0.4898545031D-01 -0.1586762981D+00
                  0.1039543000D+01  0.2592794075D+00  0.8379326898D-01
                  0.1432640000D+00 -0.1115711463D+01  0.9840546881D+00
             SP   1 1.00       0.000000000000
                  0.4929600000D-01  0.1000000000D+01  0.1000000000D+01
             S    1 1.00       0.000000000000
                  0.1620000000D+00  0.1000000000D+01
             D    3 1.00       0.000000000000
                  0.3370764000D+02  0.9262647815D-01
                  0.9061106000D+01  0.4002979920D+00
                  0.2738383000D+01  0.6896607863D+00
             D    1 1.00
                  0.2440000000D+01  0.1000000000D+01
             D    1 1.00       0.000000000000
                  0.7302940000D+00  0.1000000000D+01
             D    1 1.00       0.000000000000
                  0.1620000000D+00  0.1000000000D+01
            ****
 Initial command:
 /data2/g16/g16/l1.exe "/tmp/Gau-14087.inp" -scrdir="/tmp/"
 Entering Link 1 = /data2/g16/g16/l1.exe PID=     14088.
  
 Copyright (c) 1988-2017, Gaussian, Inc.  All Rights Reserved.
  
 This is part of the Gaussian(R) 16 program.  It is based on
 the Gaussian(R) 09 system (copyright 2009, Gaussian, Inc.),
 the Gaussian(R) 03 system (copyright 2003, Gaussian, Inc.),
 the Gaussian(R) 98 system (copyright 1998, Gaussian, Inc.),
 the Gaussian(R) 94 system (copyright 1995, Gaussian, Inc.),
 the Gaussian 92(TM) system (copyright 1992, Gaussian, Inc.),
 the Gaussian 90(TM) system (copyright 1990, Gaussian, Inc.),
 the Gaussian 88(TM) system (copyright 1988, Gaussian, Inc.),
 the Gaussian 86(TM) system (copyright 1986, Carnegie Mellon
 University), and the Gaussian 82(TM) system (copyright 1983,
 Carnegie Mellon University). Gaussian is a federally registered
 trademark of Gaussian, Inc.
  
 This software contains proprietary and confidential information,
 including trade secrets, belonging to Gaussian, Inc.
  
 This software is provided under written license and may be
 used, copied, transmitted, or stored only in accord with that
 written license.
  
 The following legend is applicable only to US Government
 contracts under FAR:
  
                    RESTRICTED RIGHTS LEGEND
  
 Use, reproduction and disclosure by the US Government is
 subject to restrictions as set forth in subparagraphs (a)
 and (c) of the Commercial Computer Software - Restricted
 Rights clause in FAR 52.227-19.
  
 Gaussian, Inc.
 340 Quinnipiac St., Bldg. 40, Wallingford CT 06492
  
  
 ---------------------------------------------------------------
 Warning -- This program may not be used in any manner that
 competes with the business of Gaussian, Inc. or will provide
 assistance to any competitor of Gaussian, Inc.  The licensee
 of this program is prohibited from giving any competitor of
 Gaussian, Inc. access to this program.  By using this program,
 the user acknowledges that Gaussian, Inc. is engaged in the
 business of creating and licensing software in the field of
 computational chemistry and represents and warrants to the
 licensee that it is not a competitor of Gaussian, Inc. and that
 it will not use this program in any manner prohibited above.
 ---------------------------------------------------------------
  

 Cite this work as:
 Gaussian 16, Revision B.01,
 M. J. Frisch, G. W. Trucks, H. B. Schlegel, G. E. Scuseria, 
 M. A. Robb, J. R. Cheeseman, G. Scalmani, V. Barone, 
 G. A. Petersson, H. Nakatsuji, X. Li, M. Caricato, A. V. Marenich, 
 J. Bloino, B. G. Janesko, R. Gomperts, B. Mennucci, H. P. Hratchian, 
 J. V. Ortiz, A. F. Izmaylov, J. L. Sonnenberg, D. Williams-Young, 
 F. Ding, F. Lipparini, F. Egidi, J. Goings, B. Peng, A. Petrone, 
 T. Henderson, D. Ranasinghe, V. G. Zakrzewski, J. Gao, N. Rega, 
 G. Zheng, W. Liang, M. Hada, M. Ehara, K. Toyota, R. Fukuda, 
 J. Hasegawa, M. Ishida, T. Nakajima, Y. Honda, O. Kitao, H. Nakai, 
 T. Vreven, K. Throssell, J. A. Montgomery, Jr., J. E. Peralta, 
 F. Ogliaro, M. J. Bearpark, J. J. Heyd, E. N. Brothers, K. N. Kudin, 
 V. N. Staroverov, T. A. Keith, R. Kobayashi, J. Normand, 
 K. Raghavachari, A. P. Rendell, J. C. Burant, S. S. Iyengar, 
 J. Tomasi, M. Cossi, J. M. Millam, M. Klene, C. Adamo, R. Cammi, 
 J. W. Ochterski, R. L. Martin, K. Morokuma, O. Farkas, 
 J. B. Foresman, and D. J. Fox, Gaussian, Inc., Wallingford CT, 2016.
 
 ******************************************
 Gaussian 16:  AM64L-G16RevB.01 20-Dec-2017
                12-Jun-2019 
 ******************************************
 %chk=MTN_PBE0_0.00.chk
 %mem=60GB
 %nprocshared=12
 Will use up to   12 processors via shared memory.
 -----------------
 #p gen 6d pbe1pbe
 -----------------
 1/38=1,172=1/1;
 2/12=2,17=6,18=5,40=1/2;
 3/5=7,8=2,11=2,25=1,30=1,74=-13/1,2,3;
 4//1;
 5/5=2,38=5/2;
 6/7=2,8=2,9=2,10=2,28=1/1;
 99/5=1,9=1/99;
 Leave Link    1 at Wed Jun 12 15:23:12 2019, MaxMem=  8053063680 cpu:               0.0 elap:               0.2
 (Enter /data2/g16/g16/l101.exe)
 ------------------
 start preoptimized
 ------------------
 Symbolic Z-matrix:
 Charge =  0 Multiplicity = 2
 O                    -3.71398   0.18625   0.9617 
 N                    -2.62593   0.04007   0.34622 
 C                    -2.16583  -1.26783  -0.16423 
 C                    -0.87108  -0.85779  -0.79994 
 C                    -0.6008    0.44397  -0.65319 
 C                     0.60745   1.12308  -1.19669 
 S                     1.94487   1.44616   0.03329 
 C                    -1.69711   1.16543   0.10304 
 C                    -1.25934   1.75511   1.44631 
 C                    -2.4047    2.22925  -0.74161 
 C                    -3.1813   -1.81874  -1.16768 
 C                    -1.96944  -2.24326   0.99993 
 H                    -0.22343  -1.56967  -1.30521 
 H                     1.06409   0.53695  -1.99834 
 H                     0.38605   2.1244   -1.58337 
 H                    -0.70782   1.01974   2.03892 
 H                    -0.61898   2.63127   1.30076 
 H                    -2.15163   2.06239   2.00132 
 H                    -3.30699   2.55974  -0.21765 
 H                    -1.75889   3.10093  -0.89587 
 H                    -2.6954    1.82747  -1.71759 
 H                    -3.30789  -1.13476  -2.01276 
 H                    -2.84978  -2.79013  -1.54978 
 H                    -4.14937  -1.94685  -0.67324 
 H                    -2.91855  -2.37181   1.53017 
 H                    -1.63838  -3.21821   0.62677 
 H                    -1.21821  -1.86865   1.7016 
 S                     2.75612  -0.53219   0.10758 
 O                     2.33163  -1.21049   1.35042 
 O                     2.50284  -1.17576  -1.20626 
 C                     4.51009  -0.17658   0.24255 
 H                     4.66495   0.43822   1.13149 
 H                     4.99401  -1.14999   0.35631 
 H                     4.8304    0.32911  -0.6687 
 
 ITRead=  0  0  0  0  0  0  0  0  0  0  0  0  0  0  0  0  0  0  0  0
 ITRead=  0  0  0  0  0  0  0  0  0  0  0  0  0  0
 MicOpt= -1 -1 -1 -1 -1 -1 -1 -1 -1 -1 -1 -1 -1 -1 -1 -1 -1 -1 -1 -1
 MicOpt= -1 -1 -1 -1 -1 -1 -1 -1 -1 -1 -1 -1 -1 -1
 NAtoms=     34 NQM=       34 NQMF=       0 NMMI=      0 NMMIF=      0
                NMic=       0 NMicF=      0.
                    Isotopes and Nuclear Properties:
 (Nuclear quadrupole moments (NQMom) in fm**2, nuclear magnetic moments (NMagM)
  in nuclear magnetons)

  Atom         1           2           3           4           5           6           7           8           9          10
 IAtWgt=          16          14          12          12          12          12          32          12          12          12
 AtmWgt=  15.9949146  14.0030740  12.0000000  12.0000000  12.0000000  12.0000000  31.9720718  12.0000000  12.0000000  12.0000000
 NucSpn=           0           2           0           0           0           0           0           0           0           0
 AtZEff=   0.0000000   0.0000000   0.0000000   0.0000000   0.0000000   0.0000000   0.0000000   0.0000000   0.0000000   0.0000000
 NQMom=    0.0000000   2.0440000   0.0000000   0.0000000   0.0000000   0.0000000   0.0000000   0.0000000   0.0000000   0.0000000
 NMagM=    0.0000000   0.4037610   0.0000000   0.0000000   0.0000000   0.0000000   0.0000000   0.0000000   0.0000000   0.0000000
 AtZNuc=   8.0000000   7.0000000   6.0000000   6.0000000   6.0000000   6.0000000  16.0000000   6.0000000   6.0000000   6.0000000

  Atom        11          12          13          14          15          16          17          18          19          20
 IAtWgt=          12          12           1           1           1           1           1           1           1           1
 AtmWgt=  12.0000000  12.0000000   1.0078250   1.0078250   1.0078250   1.0078250   1.0078250   1.0078250   1.0078250   1.0078250
 NucSpn=           0           0           1           1           1           1           1           1           1           1
 AtZEff=   0.0000000   0.0000000   0.0000000   0.0000000   0.0000000   0.0000000   0.0000000   0.0000000   0.0000000   0.0000000
 NQMom=    0.0000000   0.0000000   0.0000000   0.0000000   0.0000000   0.0000000   0.0000000   0.0000000   0.0000000   0.0000000
 NMagM=    0.0000000   0.0000000   2.7928460   2.7928460   2.7928460   2.7928460   2.7928460   2.7928460   2.7928460   2.7928460
 AtZNuc=   6.0000000   6.0000000   1.0000000   1.0000000   1.0000000   1.0000000   1.0000000   1.0000000   1.0000000   1.0000000

  Atom        21          22          23          24          25          26          27          28          29          30
 IAtWgt=           1           1           1           1           1           1           1          32          16          16
 AtmWgt=   1.0078250   1.0078250   1.0078250   1.0078250   1.0078250   1.0078250   1.0078250  31.9720718  15.9949146  15.9949146
 NucSpn=           1           1           1           1           1           1           1           0           0           0
 AtZEff=   0.0000000   0.0000000   0.0000000   0.0000000   0.0000000   0.0000000   0.0000000   0.0000000   0.0000000   0.0000000
 NQMom=    0.0000000   0.0000000   0.0000000   0.0000000   0.0000000   0.0000000   0.0000000   0.0000000   0.0000000   0.0000000
 NMagM=    2.7928460   2.7928460   2.7928460   2.7928460   2.7928460   2.7928460   2.7928460   0.0000000   0.0000000   0.0000000
 AtZNuc=   1.0000000   1.0000000   1.0000000   1.0000000   1.0000000   1.0000000   1.0000000  16.0000000   8.0000000   8.0000000

  Atom        31          32          33          34
 IAtWgt=          12           1           1           1
 AtmWgt=  12.0000000   1.0078250   1.0078250   1.0078250
 NucSpn=           0           1           1           1
 AtZEff=   0.0000000   0.0000000   0.0000000   0.0000000
 NQMom=    0.0000000   0.0000000   0.0000000   0.0000000
 NMagM=    0.0000000   2.7928460   2.7928460   2.7928460
 AtZNuc=   6.0000000   1.0000000   1.0000000   1.0000000
 Leave Link  101 at Wed Jun 12 15:23:12 2019, MaxMem=  8053063680 cpu:               0.0 elap:               0.3
 (Enter /data2/g16/g16/l202.exe)
                          Input orientation:                          
 ---------------------------------------------------------------------
 Center     Atomic      Atomic             Coordinates (Angstroms)
 Number     Number       Type             X           Y           Z
 ---------------------------------------------------------------------
      1          8           0       -3.713982    0.186249    0.961701
      2          7           0       -2.625931    0.040069    0.346221
      3          6           0       -2.165833   -1.267829   -0.164232
      4          6           0       -0.871083   -0.857792   -0.799939
      5          6           0       -0.600804    0.443974   -0.653188
      6          6           0        0.607445    1.123076   -1.196688
      7         16           0        1.944867    1.446161    0.033285
      8          6           0       -1.697106    1.165435    0.103041
      9          6           0       -1.259336    1.755110    1.446311
     10          6           0       -2.404699    2.229254   -0.741614
     11          6           0       -3.181301   -1.818744   -1.167680
     12          6           0       -1.969442   -2.243264    0.999931
     13          1           0       -0.223433   -1.569674   -1.305213
     14          1           0        1.064089    0.536949   -1.998342
     15          1           0        0.386048    2.124395   -1.583368
     16          1           0       -0.707815    1.019740    2.038919
     17          1           0       -0.618983    2.631265    1.300761
     18          1           0       -2.151628    2.062391    2.001322
     19          1           0       -3.306992    2.559735   -0.217646
     20          1           0       -1.758885    3.100930   -0.895869
     21          1           0       -2.695398    1.827468   -1.717586
     22          1           0       -3.307885   -1.134758   -2.012764
     23          1           0       -2.849784   -2.790133   -1.549776
     24          1           0       -4.149369   -1.946848   -0.673238
     25          1           0       -2.918551   -2.371814    1.530170
     26          1           0       -1.638377   -3.218213    0.626768
     27          1           0       -1.218209   -1.868650    1.701599
     28         16           0        2.756123   -0.532188    0.107576
     29          8           0        2.331632   -1.210490    1.350424
     30          8           0        2.502839   -1.175762   -1.206259
     31          6           0        4.510088   -0.176580    0.242546
     32          1           0        4.664952    0.438218    1.131487
     33          1           0        4.994013   -1.149987    0.356306
     34          1           0        4.830398    0.329114   -0.668695
 ---------------------------------------------------------------------
                    Distance matrix (angstroms):
                    1          2          3          4          5
     1  O    0.000000
     2  N    1.258586   0.000000
     3  C    2.403920   1.477447   0.000000
     4  C    3.503637   2.280204   1.499544   0.000000
     5  C    3.516556   2.294144   2.370372   1.337603   0.000000
     6  C    4.920469   3.742752   3.804400   2.503456   1.488770
     7  S    5.871278   4.792413   4.929768   3.732564   2.820650
     8  C    2.400810   1.479291   2.492371   2.364558   1.514684
     9  C    2.953212   2.453395   3.543127   3.467512   2.561374
    10  C    2.964688   2.454559   3.552466   3.447497   2.539504
    11  C    2.972879   2.460796   1.530226   2.528986   3.470383
    12  C    2.991223   2.464127   1.531443   2.522986   3.439073
    13  H    4.517311   3.330241   2.272854   1.086981   2.149959
    14  H    5.631590   4.400013   4.129598   2.669525   2.142417
    15  H    5.200388   4.140018   4.475849   3.329802   2.159381
    16  H    3.300325   2.739371   3.494662   3.407477   2.755068
    17  H    3.958798   3.413691   4.443184   4.080443   2.933000
    18  H    2.653615   2.655957   3.972429   4.244329   3.474299
    19  H    2.681406   2.670301   3.994414   4.237005   3.462599
    20  H    3.970936   3.415176   4.448253   4.058186   2.908515
    21  H    3.302982   2.731102   3.503457   3.373547   2.726595
    22  H    3.279850   2.722148   2.176938   2.735993   3.416011
    23  H    3.989136   3.413936   2.169085   2.865564   4.039954
    24  H    2.722626   2.703331   2.157445   3.456769   4.278872
    25  H    2.738531   2.702691   2.157861   3.451637   4.250608
    26  H    4.001334   3.416192   2.169767   2.862834   4.015776
    27  H    3.316465   2.731655   2.177224   2.720298   3.357743
    28  S    6.565664   5.417650   4.984044   3.753162   3.577794
    29  O    6.217028   5.210542   4.746015   3.873737   3.918022
    30  O    6.723391   5.494790   4.784433   3.413144   3.544296
    31  C    8.263423   7.140060   6.776741   5.523389   5.225767
    32  H    8.384441   7.343851   7.158848   6.004809   5.559972
    33  H    8.830697   7.712320   7.179710   5.985118   5.904385
    34  H    8.699714   7.530634   7.193883   5.825192   5.432439
                    6          7          8          9         10
     6  C    0.000000
     7  S    1.845512   0.000000
     8  C    2.646138   3.653442   0.000000
     9  C    3.296935   3.515538   1.530926   0.000000
    10  C    3.240946   4.486917   1.531614   2.514694   0.000000
    11  C    4.796847   6.195121   3.566916   4.826938   4.143782
    12  C    4.774696   5.465169   3.535224   4.085401   4.819320
    13  H    2.820113   3.948210   3.411116   4.438262   4.416720
    14  H    1.093031   2.393730   3.526330   4.329879   4.059033
    15  H    1.095983   2.345951   2.846596   3.467364   2.916816
    16  H    3.494244   3.352779   2.178887   1.093677   3.474723
    17  H    3.164808   3.095851   2.178426   1.094936   2.742570
    18  H    4.326900   4.586304   2.148160   1.094826   2.759635
    19  H    4.283145   5.374480   2.153752   2.758454   1.094483
    20  H    3.098696   4.161654   2.178940   2.747105   1.095760
    21  H    3.417056   4.974234   2.179348   3.475306   1.094742
    22  H    4.592777   6.199908   3.515982   4.951070   3.707849
    23  H    5.233575   6.590975   4.439255   5.671446   5.103476
    24  H    5.685571   7.010806   4.037636   5.152599   4.526409
    25  H    5.664156   6.361638   4.005091   4.448767   5.157022
    26  H    5.216848   5.911704   4.415213   5.054628   5.668740
    27  H    4.547912   4.876094   3.462716   3.632974   4.916286
    28  S    3.009621   2.139514   4.765836   4.811222   5.914454
    29  O    3.860846   2.990357   4.840632   4.658222   6.216212
    30  O    2.979474   2.953351   4.983473   5.457115   5.991157
    31  C    4.357881   3.042604   6.352143   6.202155   7.387211
    32  H    4.727874   3.101751   6.485548   6.077048   7.529693
    33  H    5.178859   4.017663   7.084941   6.980836   8.207657
    34  H    4.329259   3.172831   6.625958   6.602392   7.480807
                   11         12         13         14         15
    11  C    0.000000
    12  C    2.519396   0.000000
    13  H    2.971521   2.969168   0.000000
    14  H    4.925711   5.091320   2.564371   0.000000
    15  H    5.333584   5.594480   3.754329   1.775367   0.000000
    16  H    4.945443   3.649437   4.257101   4.435336   3.941797
    17  H    5.697478   5.067077   4.959380   4.254759   3.095998
    18  H    5.115272   4.424324   5.276647   5.353982   4.392453
    19  H    4.482125   5.132283   5.267177   5.135065   3.961472
    20  H    5.128386   5.674399   4.933530   3.969714   2.454998
    21  H    3.719323   4.948007   4.221521   3.984722   3.098627
    22  H    1.094544   3.478009   3.194311   4.680702   4.944856
    23  H    1.095216   2.752285   2.906381   5.156461   5.884244
    24  H    1.094550   2.763953   3.994324   5.924972   6.162253
    25  H    2.766463   1.094754   3.993305   6.064051   6.389866
    26  H    2.749395   1.095162   2.907284   5.319377   6.125884
    27  H    3.476921   1.094086   3.181177   4.968436   5.413784
    28  S    6.207617   5.104414   3.456892   2.905327   3.941317
    29  O    6.091244   4.437196   3.702672   3.984274   4.849112
    30  O    5.720521   5.099817   2.756359   2.372926   3.938788
    31  C    7.990176   6.843181   5.171314   4.172003   5.063216
    32  H    8.481965   7.157013   5.819402   4.771980   5.340660
    33  H    8.342993   7.078080   5.491678   4.882051   5.976391
    34  H    8.309609   7.459173   5.436153   3.999530   4.879745
                   16         17         18         19         20
    16  H    0.000000
    17  H    1.774762   0.000000
    18  H    1.781328   1.778596   0.000000
    19  H    3.770861   3.088053   2.550693   0.000000
    20  H    3.748210   2.518957   3.102664   1.774687   0.000000
    21  H    4.325996   3.750734   3.765787   1.777662   1.781567
    22  H    5.274311   5.691447   5.260378   4.107521   4.646279
    23  H    5.655254   6.518711   6.053487   5.532151   6.026797
    24  H    5.291572   6.108962   5.217110   4.607218   5.589637
    25  H    4.080296   5.511029   4.524636   5.246515   6.097657
    26  H    4.562933   5.975770   5.480657   6.073055   6.501116
    27  H    2.952471   4.557299   4.051443   5.259003   5.633462
    28  S    4.258806   4.777286   5.865504   6.813745   5.881475
    29  O    3.832256   4.844345   5.588832   6.961862   6.353464
    30  O    5.065541   5.524887   6.514466   6.977495   6.045554
    31  C    5.646649   5.942321   7.244636   8.294934   7.165060
    32  H    5.479802   5.723467   7.061184   8.359000   7.243334
    33  H    6.328487   6.833417   8.005350   9.110332   8.077120
    34  H    6.203220   6.234935   7.673456   8.449629   7.152148
                   21         22         23         24         25
    21  H    0.000000
    22  H    3.039252   0.000000
    23  H    4.623228   1.778899   0.000000
    24  H    4.177338   1.778178   1.779991   0.000000
    25  H    5.313350   3.772833   3.108985   2.559398   0.000000
    26  H    5.663231   3.754354   2.527470   3.100236   1.780835
    27  H    5.247304   4.324562   3.752680   3.773283   1.781495
    28  S    6.214360   6.452219   6.266684   7.092020   6.132693
    29  O    6.626681   6.566652   6.144388   6.829407   5.380093
    30  O    6.025157   5.866570   5.601319   6.717928   6.189512
    31  C    7.731582   8.192999   8.013164   8.885871   7.852497
    32  H    8.013862   8.713593   8.607130   9.307944   8.097206
    33  H    8.502547   8.633321   8.237013   9.235604   8.091940
    34  H    7.744859   8.377416   8.336138   9.263705   8.495659
                   26         27         28         29         30
    26  H    0.000000
    27  H    1.775704   0.000000
    28  S    5.176478   4.485795   0.000000
    29  O    4.507283   3.627378   1.478160   0.000000
    30  O    4.968024   4.773042   1.484757   2.562644   0.000000
    31  C    6.870428   6.148603   1.794733   2.653683   2.669541
    32  H    7.304532   6.344939   2.373544   2.865406   3.569975
    33  H    6.952647   6.396717   2.334886   2.842570   2.940786
    34  H    7.490447   6.858142   2.376353   3.562450   2.823324
                   31         32         33         34
    31  C    0.000000
    32  H    1.091868   0.000000
    33  H    1.092999   1.797660   0.000000
    34  H    1.090268   1.811058   1.806969   0.000000
 Stoichiometry    C10H18NO3S2(2)
 Framework group  C1[X(C10H18NO3S2)]
 Deg. of freedom    96
 Full point group                 C1      NOp   1
 Largest Abelian subgroup         C1      NOp   1
 Largest concise Abelian subgroup C1      NOp   1
                         Standard orientation:                         
 ---------------------------------------------------------------------
 Center     Atomic      Atomic             Coordinates (Angstroms)
 Number     Number       Type             X           Y           Z
 ---------------------------------------------------------------------
      1          8           0       -3.713982    0.186249    0.961701
      2          7           0       -2.625931    0.040069    0.346221
      3          6           0       -2.165833   -1.267829   -0.164232
      4          6           0       -0.871083   -0.857792   -0.799939
      5          6           0       -0.600804    0.443974   -0.653188
      6          6           0        0.607445    1.123076   -1.196688
      7         16           0        1.944867    1.446161    0.033285
      8          6           0       -1.697106    1.165435    0.103041
      9          6           0       -1.259336    1.755110    1.446311
     10          6           0       -2.404699    2.229254   -0.741614
     11          6           0       -3.181301   -1.818744   -1.167680
     12          6           0       -1.969442   -2.243264    0.999931
     13          1           0       -0.223433   -1.569674   -1.305213
     14          1           0        1.064089    0.536949   -1.998342
     15          1           0        0.386048    2.124395   -1.583368
     16          1           0       -0.707815    1.019740    2.038919
     17          1           0       -0.618983    2.631265    1.300761
     18          1           0       -2.151628    2.062391    2.001322
     19          1           0       -3.306992    2.559735   -0.217646
     20          1           0       -1.758885    3.100930   -0.895869
     21          1           0       -2.695398    1.827468   -1.717586
     22          1           0       -3.307885   -1.134758   -2.012764
     23          1           0       -2.849784   -2.790133   -1.549776
     24          1           0       -4.149369   -1.946848   -0.673238
     25          1           0       -2.918551   -2.371814    1.530170
     26          1           0       -1.638377   -3.218213    0.626768
     27          1           0       -1.218209   -1.868650    1.701599
     28         16           0        2.756123   -0.532188    0.107576
     29          8           0        2.331632   -1.210490    1.350424
     30          8           0        2.502839   -1.175762   -1.206259
     31          6           0        4.510088   -0.176580    0.242546
     32          1           0        4.664952    0.438218    1.131487
     33          1           0        4.994013   -1.149987    0.356306
     34          1           0        4.830398    0.329114   -0.668695
 ---------------------------------------------------------------------
 Rotational constants (GHZ):           0.7757432           0.2773359           0.2429998
 Leave Link  202 at Wed Jun 12 15:23:13 2019, MaxMem=  8053063680 cpu:               0.0 elap:               0.2
 (Enter /data2/g16/g16/l301.exe)
 General basis read from cards:  (6D, 7F)
 Centers:      13     14     15     16     17     18     19     20     21     22
 Centers:      23     24     25     26     27     32     33     34
 6-31G
 S 1 1.00 0.000000000000
     Exponent=  4.0000000000D-01 Coefficients=  1.0000000000D+00
 P 1 1.00 0.000000000000
     Exponent=  7.5000000000D-01 Coefficients=  1.0000000000D+00
 ****
 Centers:       3      4      5      6      8      9     10     11     12     31
 6-31G
 S 1 1.00 0.000000000000
     Exponent=  8.7000000000D+00 Coefficients=  1.0000000000D+00
 P 1 1.00 0.000000000000
     Exponent=  5.0000000000D-02 Coefficients=  1.0000000000D+00
 D 1 1.00
     Exponent=  8.2000000000D-01 Coefficients=  1.0000000000D+00
 ****
 Centers:       2
 6-31G
 S 1 1.00 0.000000000000
     Exponent=  1.3700000000D+01 Coefficients=  1.0000000000D+00
 P 1 1.00 0.000000000000
     Exponent=  5.3000000000D-02 Coefficients=  1.0000000000D+00
 D 1 1.00 0.000000000000
     Exponent=  1.0150000000D+00 Coefficients=  1.0000000000D+00
 ****
 Centers:       1     29     30
 6-31G
 S 1 1.00
     Exponent=  1.6000000000D+01 Coefficients=  1.0000000000D+00
 P 1 1.00 0.000000000000
     Exponent=  6.5000000000D-02 Coefficients=  1.0000000000D+00
 D 1 1.00 0.000000000000
     Exponent=  1.1900000000D+00 Coefficients=  1.0000000000D+00
 D 1 1.00 0.000000000000
     Exponent=  1.8000000000D-01 Coefficients=  1.0000000000D+00
 ****
 Centers:       7     28
 6-31G
 S 1 1.00 0.000000000000
     Exponent=  7.5000000000D+00 Coefficients=  1.0000000000D+00
 P 1 1.00 0.000000000000
     Exponent=  4.1000000000D-02 Coefficients=  1.0000000000D+00
 D 1 1.00 0.000000000000
     Exponent=  4.7900000000D-01 Coefficients=  1.0000000000D+00
 ****
 Ernie: Thresh=  0.10000D-02 Tol=  0.10000D-05 Strict=F.
 There are   438 symmetry adapted cartesian basis functions of A   symmetry.
 There are   438 symmetry adapted basis functions of A   symmetry.
   438 basis functions,   722 primitive gaussians,   438 cartesian basis functions
    71 alpha electrons       70 beta electrons
       nuclear repulsion energy      1521.2148638433 Hartrees.
 IExCor= 1009 DFT=T Ex+Corr=PBE1PBE ExCW=0 ScaHFX=  0.250000
 ScaDFX=  0.750000  0.750000  1.000000  1.000000 ScalE2=  1.000000  1.000000
 IRadAn=      5 IRanWt=     -1 IRanGd=            0 ICorTp=0 IEmpDi=  4
 NAtoms=   34 NActive=   34 NUniq=   34 SFac= 1.00D+00 NAtFMM=   60 NAOKFM=F Big=F
 Integral buffers will be    131072 words long.
 Raffenetti 2 integral format.
 Two-electron integral symmetry is turned on.
 Leave Link  301 at Wed Jun 12 15:23:13 2019, MaxMem=  8053063680 cpu:               0.0 elap:               0.2
 (Enter /data2/g16/g16/l302.exe)
 NPDir=0 NMtPBC=     1 NCelOv=     1 NCel=       1 NClECP=     1 NCelD=      1
         NCelK=      1 NCelE2=     1 NClLst=     1 CellRange=     0.0.
 One-electron integrals computed using PRISM.
 One-electron integral symmetry used in STVInt
 NBasis=   438 RedAO= T EigKep=  6.57D-05  NBF=   438
 NBsUse=   438 1.00D-06 EigRej= -1.00D+00 NBFU=   438
 Precomputing XC quadrature grid using
 IXCGrd= 4 IRadAn=           5 IRanWt=          -1 IRanGd=           0 AccXCQ= 0.00D+00.
 Generated NRdTot=       0 NPtTot=           0 NUsed=           0 NTot=          32
 NSgBfM=   433   433   433   433   433 MxSgAt=    34 MxSgA2=    34.
 Leave Link  302 at Wed Jun 12 15:23:18 2019, MaxMem=  8053063680 cpu:               0.0 elap:               4.5
 (Enter /data2/g16/g16/l303.exe)
 DipDrv:  MaxL=1.
 Leave Link  303 at Wed Jun 12 15:23:18 2019, MaxMem=  8053063680 cpu:               0.0 elap:               0.2
 (Enter /data2/g16/g16/l401.exe)
 ExpMin= 4.10D-02 ExpMax= 2.19D+04 ExpMxC= 3.30D+03 IAcc=3 IRadAn=         5 AccDes= 0.00D+00
 Harris functional with IExCor= 1009 and IRadAn=       5 diagonalized for initial guess.
 HarFok:  IExCor= 1009 AccDes= 0.00D+00 IRadAn=         5 IDoV= 1 UseB2=F ITyADJ=14
 ICtDFT=  3500011 ScaDFX=  1.000000  1.000000  1.000000  1.000000
 FoFCou: FMM=F IPFlag=           0 FMFlag=      100000 FMFlg1=           0
         NFxFlg=           0 DoJE=T BraDBF=F KetDBF=T FulRan=T
         wScrn=  0.000000 ICntrl=       500 IOpCl=  0 I1Cent=   200000004 NGrid=           0
         NMat0=    1 NMatS0=      1 NMatT0=    0 NMatD0=    1 NMtDS0=    0 NMtDT0=    0
 Petite list used in FoFCou.
 Harris En= -1467.69909400670    
 JPrj=0 DoOrth=F DoCkMO=F.
 Initial guess <Sx>= 0.0000 <Sy>= 0.0000 <Sz>= 0.5000 <S**2>= 0.7500 S= 0.5000
 Leave Link  401 at Wed Jun 12 15:23:23 2019, MaxMem=  8053063680 cpu:               0.0 elap:               5.2
 (Enter /data2/g16/g16/l502.exe)
 Integral symmetry usage will be decided dynamically.
 UHF open shell SCF:
 Using DIIS extrapolation, IDIIS=  1040.
 NGot=  8053063680 LenX=  8052670277 LenY=  8052477992
 Requested convergence on RMS density matrix=1.00D-08 within 128 cycles.
 Requested convergence on MAX density matrix=1.00D-06.
 Requested convergence on             energy=1.00D-06.
 No special actions if energy rises.
 Fock matrices will be formed incrementally for  20 cycles.

 Cycle   1  Pass 1  IDiag  1:
 FoFJK:  IHMeth= 1 ICntrl=       0 DoSepK=F KAlg= 0 I1Cent=           0 FoldK=F
 IRaf= 840000000 NMat=       1 IRICut=       1 DoRegI=T DoRafI=F ISym2E= 0 IDoP0=0 IntGTp=1.
 FoFCou: FMM=F IPFlag=           0 FMFlag=      100000 FMFlg1=           0
         NFxFlg=           0 DoJE=F BraDBF=F KetDBF=F FulRan=T
         wScrn=  0.000000 ICntrl=         0 IOpCl=  1 I1Cent=           0 NGrid=           0
         NMat0=    1 NMatS0=      1 NMatT0=    0 NMatD0=    1 NMtDS0=    0 NMtDT0=    0
 Symmetry not used in FoFCou.
 E= -1466.93583186374    
 DIIS: error= 2.57D-02 at cycle   1 NSaved=   1.
 NSaved= 1 IEnMin= 1 EnMin= -1466.93583186374     IErMin= 1 ErrMin= 2.57D-02
 ErrMax= 2.57D-02  0.00D+00 EMaxC= 1.00D-01 BMatC= 2.97D+00 BMatP= 2.97D+00
 IDIUse=3 WtCom= 7.43D-01 WtEn= 2.57D-01
 Coeff-Com:  0.100D+01
 Coeff-En:   0.100D+01
 Coeff:      0.100D+01
 Gap=     0.222 Goal=   None    Shift=    0.000
 Gap=     0.368 Goal=   None    Shift=    0.000
 GapD=    0.222 DampG=1.000 DampE=0.500 DampFc=0.5000 IDamp=-1.
 Damping current iteration by 5.00D-01
 RMSDP=4.76D-03 MaxDP=4.12D-01              OVMax= 3.01D-01

 Cycle   2  Pass 1  IDiag  1:
 RMSU=  2.37D-03    CP:  9.92D-01
 E= -1467.06263944411     Delta-E=       -0.126807580369 Rises=F Damp=T
 DIIS: error= 1.04D-02 at cycle   2 NSaved=   2.
 NSaved= 2 IEnMin= 2 EnMin= -1467.06263944411     IErMin= 2 ErrMin= 1.04D-02
 ErrMax= 1.04D-02  0.00D+00 EMaxC= 1.00D-01 BMatC= 5.21D-01 BMatP= 2.97D+00
 IDIUse=3 WtCom= 8.96D-01 WtEn= 1.04D-01
 Coeff-Com:  0.226D+00 0.774D+00
 Coeff-En:   0.395D+00 0.605D+00
 Coeff:      0.243D+00 0.757D+00
 Gap=     0.124 Goal=   None    Shift=    0.000
 Gap=     0.185 Goal=   None    Shift=    0.000
 RMSDP=1.68D-03 MaxDP=1.19D-01 DE=-1.27D-01 OVMax= 2.87D-01

 Cycle   3  Pass 1  IDiag  1:
 RMSU=  1.39D-03    CP:  9.82D-01  6.10D-01
 E= -1467.46641480268     Delta-E=       -0.403775358567 Rises=F Damp=F
 DIIS: error= 9.12D-03 at cycle   3 NSaved=   3.
 NSaved= 3 IEnMin= 3 EnMin= -1467.46641480268     IErMin= 3 ErrMin= 9.12D-03
 ErrMax= 9.12D-03  0.00D+00 EMaxC= 1.00D-01 BMatC= 3.56D-01 BMatP= 5.21D-01
 IDIUse=3 WtCom= 9.09D-01 WtEn= 9.12D-02
 Coeff-Com:  0.530D-01 0.446D+00 0.501D+00
 Coeff-En:   0.000D+00 0.000D+00 0.100D+01
 Coeff:      0.482D-01 0.406D+00 0.546D+00
 Gap=     0.142 Goal=   None    Shift=    0.000
 Gap=     0.223 Goal=   None    Shift=    0.000
 RMSDP=9.43D-04 MaxDP=6.51D-02 DE=-4.04D-01 OVMax= 1.09D-01

 Cycle   4  Pass 1  IDiag  1:
 RMSU=  6.27D-04    CP:  9.87D-01  7.36D-01  5.45D-01
 E= -1467.53840551039     Delta-E=       -0.071990707711 Rises=F Damp=F
 DIIS: error= 2.69D-03 at cycle   4 NSaved=   4.
 NSaved= 4 IEnMin= 4 EnMin= -1467.53840551039     IErMin= 4 ErrMin= 2.69D-03
 ErrMax= 2.69D-03  0.00D+00 EMaxC= 1.00D-01 BMatC= 4.53D-02 BMatP= 3.56D-01
 IDIUse=3 WtCom= 9.73D-01 WtEn= 2.69D-02
 Coeff-Com: -0.121D-01 0.676D-01 0.282D+00 0.662D+00
 Coeff-En:   0.000D+00 0.000D+00 0.101D+00 0.899D+00
 Coeff:     -0.118D-01 0.658D-01 0.277D+00 0.669D+00
 Gap=     0.142 Goal=   None    Shift=    0.000
 Gap=     0.201 Goal=   None    Shift=    0.000
 RMSDP=3.16D-04 MaxDP=1.81D-02 DE=-7.20D-02 OVMax= 3.28D-02

 Cycle   5  Pass 1  IDiag  1:
 RMSU=  2.04D-04    CP:  9.86D-01  7.21D-01  6.56D-01  7.09D-01
 E= -1467.54783814761     Delta-E=       -0.009432637220 Rises=F Damp=F
 DIIS: error= 8.86D-04 at cycle   5 NSaved=   5.
 NSaved= 5 IEnMin= 5 EnMin= -1467.54783814761     IErMin= 5 ErrMin= 8.86D-04
 ErrMax= 8.86D-04  0.00D+00 EMaxC= 1.00D-01 BMatC= 4.06D-03 BMatP= 4.53D-02
 IDIUse=3 WtCom= 9.91D-01 WtEn= 8.86D-03
 Coeff-Com: -0.886D-02 0.156D-01 0.129D+00 0.373D+00 0.492D+00
 Coeff-En:   0.000D+00 0.000D+00 0.000D+00 0.000D+00 0.100D+01
 Coeff:     -0.878D-02 0.154D-01 0.128D+00 0.370D+00 0.496D+00
 Gap=     0.142 Goal=   None    Shift=    0.000
 Gap=     0.205 Goal=   None    Shift=    0.000
 RMSDP=1.09D-04 MaxDP=5.43D-03 DE=-9.43D-03 OVMax= 1.25D-02

 Cycle   6  Pass 1  IDiag  1:
 RMSU=  7.01D-05    CP:  9.85D-01  7.24D-01  6.52D-01  7.65D-01  6.28D-01
 E= -1467.54871330038     Delta-E=       -0.000875152770 Rises=F Damp=F
 DIIS: error= 2.47D-04 at cycle   6 NSaved=   6.
 NSaved= 6 IEnMin= 6 EnMin= -1467.54871330038     IErMin= 6 ErrMin= 2.47D-04
 ErrMax= 2.47D-04  0.00D+00 EMaxC= 1.00D-01 BMatC= 4.05D-04 BMatP= 4.06D-03
 IDIUse=3 WtCom= 9.98D-01 WtEn= 2.47D-03
 Coeff-Com: -0.294D-02 0.132D-02 0.358D-01 0.116D+00 0.271D+00 0.579D+00
 Coeff-En:   0.000D+00 0.000D+00 0.000D+00 0.000D+00 0.413D-01 0.959D+00
 Coeff:     -0.294D-02 0.131D-02 0.357D-01 0.116D+00 0.271D+00 0.579D+00
 Gap=     0.144 Goal=   None    Shift=    0.000
 Gap=     0.205 Goal=   None    Shift=    0.000
 RMSDP=3.59D-05 MaxDP=2.36D-03 DE=-8.75D-04 OVMax= 5.17D-03

 Cycle   7  Pass 1  IDiag  1:
 RMSU=  2.55D-05    CP:  9.85D-01  7.21D-01  6.58D-01  7.67D-01  6.73D-01
                    CP:  7.01D-01
 E= -1467.54880685597     Delta-E=       -0.000093555592 Rises=F Damp=F
 DIIS: error= 1.08D-04 at cycle   7 NSaved=   7.
 NSaved= 7 IEnMin= 7 EnMin= -1467.54880685597     IErMin= 7 ErrMin= 1.08D-04
 ErrMax= 1.08D-04  0.00D+00 EMaxC= 1.00D-01 BMatC= 6.49D-05 BMatP= 4.05D-04
 IDIUse=3 WtCom= 9.99D-01 WtEn= 1.08D-03
 Coeff-Com: -0.382D-04-0.238D-02-0.275D-02-0.310D-03 0.582D-01 0.327D+00
 Coeff-Com:  0.621D+00
 Coeff-En:   0.000D+00 0.000D+00 0.000D+00 0.000D+00 0.000D+00 0.682D-01
 Coeff-En:   0.932D+00
 Coeff:     -0.381D-04-0.237D-02-0.275D-02-0.310D-03 0.581D-01 0.326D+00
 Coeff:      0.621D+00
 Gap=     0.144 Goal=   None    Shift=    0.000
 Gap=     0.205 Goal=   None    Shift=    0.000
 RMSDP=1.50D-05 MaxDP=9.30D-04 DE=-9.36D-05 OVMax= 1.18D-03

 Cycle   8  Pass 1  IDiag  1:
 RMSU=  1.03D-05    CP:  9.85D-01  7.21D-01  6.58D-01  7.67D-01  7.07D-01
                    CP:  7.97D-01  8.05D-01
 E= -1467.54882274896     Delta-E=       -0.000015892994 Rises=F Damp=F
 DIIS: error= 3.19D-05 at cycle   8 NSaved=   8.
 NSaved= 8 IEnMin= 8 EnMin= -1467.54882274896     IErMin= 8 ErrMin= 3.19D-05
 ErrMax= 3.19D-05  0.00D+00 EMaxC= 1.00D-01 BMatC= 4.21D-06 BMatP= 6.49D-05
 IDIUse=1 WtCom= 1.00D+00 WtEn= 0.00D+00
 Coeff-Com:  0.420D-03-0.107D-02-0.526D-02-0.143D-01-0.176D-01 0.570D-01
 Coeff-Com:  0.201D+00 0.780D+00
 Coeff:      0.420D-03-0.107D-02-0.526D-02-0.143D-01-0.176D-01 0.570D-01
 Coeff:      0.201D+00 0.780D+00
 Gap=     0.144 Goal=   None    Shift=    0.000
 Gap=     0.205 Goal=   None    Shift=    0.000
 RMSDP=4.82D-06 MaxDP=5.72D-04 DE=-1.59D-05 OVMax= 1.18D-03

 Cycle   9  Pass 1  IDiag  1:
 RMSU=  3.88D-06    CP:  9.85D-01  7.21D-01  6.57D-01  7.69D-01  7.06D-01
                    CP:  8.26D-01  8.45D-01  9.14D-01
 E= -1467.54882417834     Delta-E=       -0.000001429374 Rises=F Damp=F
 DIIS: error= 2.11D-05 at cycle   9 NSaved=   9.
 NSaved= 9 IEnMin= 9 EnMin= -1467.54882417834     IErMin= 9 ErrMin= 2.11D-05
 ErrMax= 2.11D-05  0.00D+00 EMaxC= 1.00D-01 BMatC= 2.11D-06 BMatP= 4.21D-06
 IDIUse=1 WtCom= 1.00D+00 WtEn= 0.00D+00
 Coeff-Com:  0.298D-03-0.270D-03-0.253D-02-0.849D-02-0.245D-01-0.319D-01
 Coeff-Com: -0.260D-01 0.447D+00 0.647D+00
 Coeff:      0.298D-03-0.270D-03-0.253D-02-0.849D-02-0.245D-01-0.319D-01
 Coeff:     -0.260D-01 0.447D+00 0.647D+00
 Gap=     0.144 Goal=   None    Shift=    0.000
 Gap=     0.205 Goal=   None    Shift=    0.000
 RMSDP=3.32D-06 MaxDP=2.62D-04 DE=-1.43D-06 OVMax= 2.83D-04

 Cycle  10  Pass 1  IDiag  1:
 RMSU=  2.12D-06    CP:  9.85D-01  7.21D-01  6.57D-01  7.69D-01  7.11D-01
                    CP:  8.44D-01  8.86D-01  1.06D+00  9.24D-01
 E= -1467.54882467654     Delta-E=       -0.000000498206 Rises=F Damp=F
 DIIS: error= 8.46D-06 at cycle  10 NSaved=  10.
 NSaved=10 IEnMin=10 EnMin= -1467.54882467654     IErMin=10 ErrMin= 8.46D-06
 ErrMax= 8.46D-06  0.00D+00 EMaxC= 1.00D-01 BMatC= 4.08D-07 BMatP= 2.11D-06
 IDIUse=1 WtCom= 1.00D+00 WtEn= 0.00D+00
 Coeff-Com:  0.829D-04 0.984D-04-0.212D-04-0.111D-02-0.101D-01-0.274D-01
 Coeff-Com: -0.644D-01 0.920D-01 0.366D+00 0.645D+00
 Coeff:      0.829D-04 0.984D-04-0.212D-04-0.111D-02-0.101D-01-0.274D-01
 Coeff:     -0.644D-01 0.920D-01 0.366D+00 0.645D+00
 Gap=     0.145 Goal=   None    Shift=    0.000
 Gap=     0.205 Goal=   None    Shift=    0.000
 RMSDP=1.27D-06 MaxDP=1.38D-04 DE=-4.98D-07 OVMax= 3.03D-04

 Cycle  11  Pass 1  IDiag  1:
 RMSU=  7.88D-07    CP:  9.85D-01  7.21D-01  6.58D-01  7.69D-01  7.10D-01
                    CP:  8.48D-01  8.87D-01  1.13D+00  1.03D+00  8.20D-01
 E= -1467.54882479978     Delta-E=       -0.000000123234 Rises=F Damp=F
 DIIS: error= 6.50D-06 at cycle  11 NSaved=  11.
 NSaved=11 IEnMin=11 EnMin= -1467.54882479978     IErMin=11 ErrMin= 6.50D-06
 ErrMax= 6.50D-06  0.00D+00 EMaxC= 1.00D-01 BMatC= 9.05D-08 BMatP= 4.08D-07
 IDIUse=1 WtCom= 1.00D+00 WtEn= 0.00D+00
 Coeff-Com: -0.539D-05 0.685D-04 0.441D-03 0.950D-03-0.129D-02-0.855D-02
 Coeff-Com: -0.323D-01-0.336D-01 0.483D-01 0.355D+00 0.671D+00
 Coeff:     -0.539D-05 0.685D-04 0.441D-03 0.950D-03-0.129D-02-0.855D-02
 Coeff:     -0.323D-01-0.336D-01 0.483D-01 0.355D+00 0.671D+00
 Gap=     0.145 Goal=   None    Shift=    0.000
 Gap=     0.205 Goal=   None    Shift=    0.000
 RMSDP=6.33D-07 MaxDP=4.65D-05 DE=-1.23D-07 OVMax= 7.21D-05

 Cycle  12  Pass 1  IDiag  1:
 RMSU=  4.01D-07    CP:  9.85D-01  7.21D-01  6.57D-01  7.69D-01  7.10D-01
                    CP:  8.51D-01  8.87D-01  1.14D+00  1.09D+00  9.82D-01
                    CP:  8.79D-01
 E= -1467.54882482279     Delta-E=       -0.000000023012 Rises=F Damp=F
 DIIS: error= 1.22D-06 at cycle  12 NSaved=  12.
 NSaved=12 IEnMin=12 EnMin= -1467.54882482279     IErMin=12 ErrMin= 1.22D-06
 ErrMax= 1.22D-06  0.00D+00 EMaxC= 1.00D-01 BMatC= 9.42D-09 BMatP= 9.05D-08
 IDIUse=1 WtCom= 1.00D+00 WtEn= 0.00D+00
 Coeff-Com: -0.912D-05 0.976D-05 0.205D-03 0.563D-03 0.850D-03 0.891D-03
 Coeff-Com: -0.469D-02-0.261D-01-0.404D-01 0.714D-01 0.295D+00 0.702D+00
 Coeff:     -0.912D-05 0.976D-05 0.205D-03 0.563D-03 0.850D-03 0.891D-03
 Coeff:     -0.469D-02-0.261D-01-0.404D-01 0.714D-01 0.295D+00 0.702D+00
 Gap=     0.145 Goal=   None    Shift=    0.000
 Gap=     0.205 Goal=   None    Shift=    0.000
 RMSDP=2.31D-07 MaxDP=1.44D-05 DE=-2.30D-08 OVMax= 2.63D-05

 Cycle  13  Pass 1  IDiag  1:
 RMSU=  1.67D-07    CP:  9.85D-01  7.21D-01  6.57D-01  7.68D-01  7.10D-01
                    CP:  8.51D-01  8.87D-01  1.15D+00  1.11D+00  1.03D+00
                    CP:  9.43D-01  8.17D-01
 E= -1467.54882482550     Delta-E=       -0.000000002713 Rises=F Damp=F
 DIIS: error= 1.28D-06 at cycle  13 NSaved=  13.
 NSaved=13 IEnMin=13 EnMin= -1467.54882482550     IErMin=12 ErrMin= 1.22D-06
 ErrMax= 1.28D-06  0.00D+00 EMaxC= 1.00D-01 BMatC= 2.99D-09 BMatP= 9.42D-09
 IDIUse=1 WtCom= 1.00D+00 WtEn= 0.00D+00
 Coeff-Com: -0.254D-05-0.112D-04 0.318D-04 0.127D-03 0.730D-03 0.249D-02
 Coeff-Com:  0.406D-02-0.642D-02-0.347D-01-0.306D-01 0.221D-01 0.407D+00
 Coeff-Com:  0.635D+00
 Coeff:     -0.254D-05-0.112D-04 0.318D-04 0.127D-03 0.730D-03 0.249D-02
 Coeff:      0.406D-02-0.642D-02-0.347D-01-0.306D-01 0.221D-01 0.407D+00
 Coeff:      0.635D+00
 Gap=     0.145 Goal=   None    Shift=    0.000
 Gap=     0.205 Goal=   None    Shift=    0.000
 RMSDP=1.08D-07 MaxDP=7.25D-06 DE=-2.71D-09 OVMax= 1.25D-05

 Cycle  14  Pass 1  IDiag  1:
 RMSU=  8.28D-08    CP:  9.85D-01  7.21D-01  6.57D-01  7.68D-01  7.10D-01
                    CP:  8.51D-01  8.86D-01  1.15D+00  1.11D+00  1.05D+00
                    CP:  9.78D-01  9.00D-01  8.35D-01
 E= -1467.54882482611     Delta-E=       -0.000000000609 Rises=F Damp=F
 DIIS: error= 7.80D-07 at cycle  14 NSaved=  14.
 NSaved=14 IEnMin=14 EnMin= -1467.54882482611     IErMin=14 ErrMin= 7.80D-07
 ErrMax= 7.80D-07  0.00D+00 EMaxC= 1.00D-01 BMatC= 1.19D-09 BMatP= 2.99D-09
 IDIUse=1 WtCom= 1.00D+00 WtEn= 0.00D+00
 Coeff-Com:  0.435D-06-0.110D-04-0.256D-04-0.404D-04 0.318D-03 0.156D-02
 Coeff-Com:  0.385D-02 0.162D-02-0.156D-01-0.382D-01-0.603D-01 0.112D+00
 Coeff-Com:  0.461D+00 0.534D+00
 Coeff:      0.435D-06-0.110D-04-0.256D-04-0.404D-04 0.318D-03 0.156D-02
 Coeff:      0.385D-02 0.162D-02-0.156D-01-0.382D-01-0.603D-01 0.112D+00
 Coeff:      0.461D+00 0.534D+00
 Gap=     0.145 Goal=   None    Shift=    0.000
 Gap=     0.205 Goal=   None    Shift=    0.000
 RMSDP=5.90D-08 MaxDP=3.48D-06 DE=-6.09D-10 OVMax= 4.22D-06

 Cycle  15  Pass 1  IDiag  1:
 RMSU=  3.10D-08    CP:  9.85D-01  7.21D-01  6.57D-01  7.68D-01  7.10D-01
                    CP:  8.51D-01  8.86D-01  1.15D+00  1.11D+00  1.05D+00
                    CP:  9.95D-01  9.76D-01  9.25D-01  7.06D-01
 E= -1467.54882482645     Delta-E=       -0.000000000337 Rises=F Damp=F
 DIIS: error= 1.13D-07 at cycle  15 NSaved=  15.
 NSaved=15 IEnMin=15 EnMin= -1467.54882482645     IErMin=15 ErrMin= 1.13D-07
 ErrMax= 1.13D-07  0.00D+00 EMaxC= 1.00D-01 BMatC= 6.63D-11 BMatP= 1.19D-09
 IDIUse=1 WtCom= 1.00D+00 WtEn= 0.00D+00
 Coeff-Com:  0.709D-06-0.214D-05-0.192D-04-0.459D-04-0.853D-05 0.219D-03
 Coeff-Com:  0.865D-03 0.219D-02-0.134D-03-0.956D-02-0.324D-01-0.295D-01
 Coeff-Com:  0.795D-01 0.213D+00 0.776D+00
 Coeff:      0.709D-06-0.214D-05-0.192D-04-0.459D-04-0.853D-05 0.219D-03
 Coeff:      0.865D-03 0.219D-02-0.134D-03-0.956D-02-0.324D-01-0.295D-01
 Coeff:      0.795D-01 0.213D+00 0.776D+00
 Gap=     0.145 Goal=   None    Shift=    0.000
 Gap=     0.205 Goal=   None    Shift=    0.000
 RMSDP=1.90D-08 MaxDP=1.14D-06 DE=-3.37D-10 OVMax= 1.94D-06

 Cycle  16  Pass 1  IDiag  1:
 RMSU=  1.34D-08    CP:  9.85D-01  7.21D-01  6.57D-01  7.68D-01  7.10D-01
                    CP:  8.51D-01  8.86D-01  1.15D+00  1.11D+00  1.06D+00
                    CP:  9.95D-01  9.83D-01  9.86D-01  7.68D-01  9.30D-01
 E= -1467.54882482637     Delta-E=        0.000000000081 Rises=F Damp=F
 DIIS: error= 4.54D-08 at cycle  16 NSaved=  16.
 NSaved=16 IEnMin=15 EnMin= -1467.54882482645     IErMin=16 ErrMin= 4.54D-08
 ErrMax= 4.54D-08  0.00D+00 EMaxC= 1.00D-01 BMatC= 1.09D-11 BMatP= 6.63D-11
 IDIUse=1 WtCom= 1.00D+00 WtEn= 0.00D+00
 Coeff-Com:  0.879D-07 0.103D-05-0.383D-05-0.108D-04-0.521D-04-0.146D-03
 Coeff-Com: -0.250D-03 0.628D-03 0.221D-02 0.239D-02-0.428D-02-0.274D-01
 Coeff-Com: -0.396D-01 0.521D-03 0.309D+00 0.757D+00
 Coeff:      0.879D-07 0.103D-05-0.383D-05-0.108D-04-0.521D-04-0.146D-03
 Coeff:     -0.250D-03 0.628D-03 0.221D-02 0.239D-02-0.428D-02-0.274D-01
 Coeff:     -0.396D-01 0.521D-03 0.309D+00 0.757D+00
 Gap=     0.145 Goal=   None    Shift=    0.000
 Gap=     0.205 Goal=   None    Shift=    0.000
 RMSDP=8.32D-09 MaxDP=4.58D-07 DE= 8.14D-11 OVMax= 1.19D-06

 SCF Done:  E(UPBE1PBE) =  -1467.54882483     A.U. after   16 cycles
            NFock= 16  Conv=0.83D-08     -V/T= 2.0052
 <Sx>= 0.0000 <Sy>= 0.0000 <Sz>= 0.5000 <S**2>= 0.7550 S= 0.5025
 <L.S>=  0.00000000000    
 KE= 1.459914051370D+03 PE=-6.497841108022D+03 EE= 2.049163367982D+03
 Annihilation of the first spin contaminant:
 S**2 before annihilation     0.7550,   after     0.7500
 Leave Link  502 at Wed Jun 12 15:29:32 2019, MaxMem=  8053063680 cpu:               0.0 elap:             368.3
 (Enter /data2/g16/g16/l601.exe)
 Copying SCF densities to generalized density rwf, IOpCl= 1 IROHF=0.

 **********************************************************************

            Population analysis using the SCF Density.

 **********************************************************************

 Orbital symmetries:
 Alpha Orbitals:
       Occupied  (A) (A) (A) (A) (A) (A) (A) (A) (A) (A) (A) (A)
                 (A) (A) (A) (A) (A) (A) (A) (A) (A) (A) (A) (A)
                 (A) (A) (A) (A) (A) (A) (A) (A) (A) (A) (A) (A)
                 (A) (A) (A) (A) (A) (A) (A) (A) (A) (A) (A) (A)
                 (A) (A) (A) (A) (A) (A) (A) (A) (A) (A) (A) (A)
                 (A) (A) (A) (A) (A) (A) (A) (A) (A) (A) (A)
       Virtual   (A) (A) (A) (A) (A) (A) (A) (A) (A) (A) (A) (A)
                 (A) (A) (A) (A) (A) (A) (A) (A) (A) (A) (A) (A)
                 (A) (A) (A) (A) (A) (A) (A) (A) (A) (A) (A) (A)
                 (A) (A) (A) (A) (A) (A) (A) (A) (A) (A) (A) (A)
                 (A) (A) (A) (A) (A) (A) (A) (A) (A) (A) (A) (A)
                 (A) (A) (A) (A) (A) (A) (A) (A) (A) (A) (A) (A)
                 (A) (A) (A) (A) (A) (A) (A) (A) (A) (A) (A) (A)
                 (A) (A) (A) (A) (A) (A) (A) (A) (A) (A) (A) (A)
                 (A) (A) (A) (A) (A) (A) (A) (A) (A) (A) (A) (A)
                 (A) (A) (A) (A) (A) (A) (A) (A) (A) (A) (A) (A)
                 (A) (A) (A) (A) (A) (A) (A) (A) (A) (A) (A) (A)
                 (A) (A) (A) (A) (A) (A) (A) (A) (A) (A) (A) (A)
                 (A) (A) (A) (A) (A) (A) (A) (A) (A) (A) (A) (A)
                 (A) (A) (A) (A) (A) (A) (A) (A) (A) (A) (A) (A)
                 (A) (A) (A) (A) (A) (A) (A) (A) (A) (A) (A) (A)
                 (A) (A) (A) (A) (A) (A) (A) (A) (A) (A) (A) (A)
                 (A) (A) (A) (A) (A) (A) (A) (A) (A) (A) (A) (A)
                 (A) (A) (A) (A) (A) (A) (A) (A) (A) (A) (A) (A)
                 (A) (A) (A) (A) (A) (A) (A) (A) (A) (A) (A) (A)
                 (A) (A) (A) (A) (A) (A) (A) (A) (A) (A) (A) (A)
                 (A) (A) (A) (A) (A) (A) (A) (A) (A) (A) (A) (A)
                 (A) (A) (A) (A) (A) (A) (A) (A) (A) (A) (A) (A)
                 (A) (A) (A) (A) (A) (A) (A) (A) (A) (A) (A) (A)
                 (A) (A) (A) (A) (A) (A) (A) (A) (A) (A) (A) (A)
                 (A) (A) (A) (A) (A) (A) (A) (A) (A) (A) (A) (A)
                 (A) (A) (A) (A) (A) (A) (A) (A) (A) (A) (A) (A)
                 (A) (A) (A) (A) (A) (A) (A) (A) (A) (A) (A) (A)
                 (A) (A) (A) (A) (A) (A) (A) (A) (A) (A) (A) (A)
                 (A) (A) (A) (A) (A) (A) (A) (A) (A) (A) (A) (A)
                 (A) (A) (A) (A) (A) (A) (A) (A) (A) (A) (A) (A)
                 (A) (A) (A) (A) (A) (A) (A)
 Beta  Orbitals:
       Occupied  (A) (A) (A) (A) (A) (A) (A) (A) (A) (A) (A) (A)
                 (A) (A) (A) (A) (A) (A) (A) (A) (A) (A) (A) (A)
                 (A) (A) (A) (A) (A) (A) (A) (A) (A) (A) (A) (A)
                 (A) (A) (A) (A) (A) (A) (A) (A) (A) (A) (A) (A)
                 (A) (A) (A) (A) (A) (A) (A) (A) (A) (A) (A) (A)
                 (A) (A) (A) (A) (A) (A) (A) (A) (A) (A)
       Virtual   (A) (A) (A) (A) (A) (A) (A) (A) (A) (A) (A) (A)
                 (A) (A) (A) (A) (A) (A) (A) (A) (A) (A) (A) (A)
                 (A) (A) (A) (A) (A) (A) (A) (A) (A) (A) (A) (A)
                 (A) (A) (A) (A) (A) (A) (A) (A) (A) (A) (A) (A)
                 (A) (A) (A) (A) (A) (A) (A) (A) (A) (A) (A) (A)
                 (A) (A) (A) (A) (A) (A) (A) (A) (A) (A) (A) (A)
                 (A) (A) (A) (A) (A) (A) (A) (A) (A) (A) (A) (A)
                 (A) (A) (A) (A) (A) (A) (A) (A) (A) (A) (A) (A)
                 (A) (A) (A) (A) (A) (A) (A) (A) (A) (A) (A) (A)
                 (A) (A) (A) (A) (A) (A) (A) (A) (A) (A) (A) (A)
                 (A) (A) (A) (A) (A) (A) (A) (A) (A) (A) (A) (A)
                 (A) (A) (A) (A) (A) (A) (A) (A) (A) (A) (A) (A)
                 (A) (A) (A) (A) (A) (A) (A) (A) (A) (A) (A) (A)
                 (A) (A) (A) (A) (A) (A) (A) (A) (A) (A) (A) (A)
                 (A) (A) (A) (A) (A) (A) (A) (A) (A) (A) (A) (A)
                 (A) (A) (A) (A) (A) (A) (A) (A) (A) (A) (A) (A)
                 (A) (A) (A) (A) (A) (A) (A) (A) (A) (A) (A) (A)
                 (A) (A) (A) (A) (A) (A) (A) (A) (A) (A) (A) (A)
                 (A) (A) (A) (A) (A) (A) (A) (A) (A) (A) (A) (A)
                 (A) (A) (A) (A) (A) (A) (A) (A) (A) (A) (A) (A)
                 (A) (A) (A) (A) (A) (A) (A) (A) (A) (A) (A) (A)
                 (A) (A) (A) (A) (A) (A) (A) (A) (A) (A) (A) (A)
                 (A) (A) (A) (A) (A) (A) (A) (A) (A) (A) (A) (A)
                 (A) (A) (A) (A) (A) (A) (A) (A) (A) (A) (A) (A)
                 (A) (A) (A) (A) (A) (A) (A) (A) (A) (A) (A) (A)
                 (A) (A) (A) (A) (A) (A) (A) (A) (A) (A) (A) (A)
                 (A) (A) (A) (A) (A) (A) (A) (A) (A) (A) (A) (A)
                 (A) (A) (A) (A) (A) (A) (A) (A) (A) (A) (A) (A)
                 (A) (A) (A) (A) (A) (A) (A) (A) (A) (A) (A) (A)
                 (A) (A) (A) (A) (A) (A) (A) (A) (A) (A) (A) (A)
                 (A) (A) (A) (A) (A) (A) (A) (A)
 The electronic state is 2-A.
 Alpha  occ. eigenvalues --  -89.28810 -89.08199 -19.24737 -19.24238 -19.22558
 Alpha  occ. eigenvalues --  -14.48489 -10.29780 -10.29706 -10.29113 -10.28696
 Alpha  occ. eigenvalues --  -10.26141 -10.24870 -10.23246 -10.22735 -10.22646
 Alpha  occ. eigenvalues --  -10.22369  -8.22127  -8.04442  -6.15849  -6.15806
 Alpha  occ. eigenvalues --   -6.15691  -5.98283  -5.97905  -5.97183  -1.14691
 Alpha  occ. eigenvalues --   -1.13918  -1.04456  -0.93335  -0.85927  -0.84052
 Alpha  occ. eigenvalues --   -0.82259  -0.77248  -0.74901  -0.72091  -0.71241
 Alpha  occ. eigenvalues --   -0.70593  -0.64490  -0.62472  -0.59026  -0.56408
 Alpha  occ. eigenvalues --   -0.53140  -0.51825  -0.51297  -0.50754  -0.50334
 Alpha  occ. eigenvalues --   -0.48515  -0.47434  -0.46367  -0.46184  -0.45179
 Alpha  occ. eigenvalues --   -0.44663  -0.44005  -0.42775  -0.42466  -0.41675
 Alpha  occ. eigenvalues --   -0.40529  -0.40055  -0.39191  -0.38936  -0.36504
 Alpha  occ. eigenvalues --   -0.36385  -0.36159  -0.35747  -0.35655  -0.34571
 Alpha  occ. eigenvalues --   -0.33584  -0.31773  -0.28337  -0.27183  -0.26899
 Alpha  occ. eigenvalues --   -0.19890
 Alpha virt. eigenvalues --   -0.05438  -0.02469   0.00455   0.01063   0.02626
 Alpha virt. eigenvalues --    0.03423   0.03721   0.04563   0.04796   0.04994
 Alpha virt. eigenvalues --    0.05455   0.05819   0.06168   0.06285   0.06856
 Alpha virt. eigenvalues --    0.07839   0.08244   0.08349   0.09025   0.09315
 Alpha virt. eigenvalues --    0.09364   0.09698   0.10317   0.10801   0.10986
 Alpha virt. eigenvalues --    0.11372   0.11858   0.12630   0.13021   0.13689
 Alpha virt. eigenvalues --    0.14035   0.14378   0.14759   0.15089   0.15487
 Alpha virt. eigenvalues --    0.15999   0.16602   0.16708   0.16987   0.17710
 Alpha virt. eigenvalues --    0.18450   0.18728   0.19270   0.19498   0.19659
 Alpha virt. eigenvalues --    0.19969   0.20941   0.21281   0.21965   0.22517
 Alpha virt. eigenvalues --    0.23165   0.23338   0.24118   0.24528   0.25359
 Alpha virt. eigenvalues --    0.26077   0.26314   0.26638   0.27166   0.27712
 Alpha virt. eigenvalues --    0.28131   0.28504   0.29068   0.29279   0.29811
 Alpha virt. eigenvalues --    0.30444   0.30531   0.31458   0.31611   0.31910
 Alpha virt. eigenvalues --    0.32518   0.32931   0.33606   0.34445   0.34997
 Alpha virt. eigenvalues --    0.35637   0.36811   0.37795   0.38051   0.40530
 Alpha virt. eigenvalues --    0.41741   0.42080   0.42445   0.43259   0.44424
 Alpha virt. eigenvalues --    0.46233   0.47147   0.47580   0.48067   0.50239
 Alpha virt. eigenvalues --    0.50687   0.51090   0.51892   0.51984   0.52667
 Alpha virt. eigenvalues --    0.53030   0.53812   0.54382   0.55466   0.56163
 Alpha virt. eigenvalues --    0.56962   0.57723   0.58179   0.59851   0.60381
 Alpha virt. eigenvalues --    0.60764   0.61852   0.62703   0.63147   0.64001
 Alpha virt. eigenvalues --    0.64347   0.64960   0.65478   0.65712   0.66620
 Alpha virt. eigenvalues --    0.67991   0.68111   0.68628   0.69975   0.70915
 Alpha virt. eigenvalues --    0.72118   0.72752   0.73133   0.73512   0.74181
 Alpha virt. eigenvalues --    0.74862   0.75857   0.76492   0.77380   0.78561
 Alpha virt. eigenvalues --    0.79041   0.79881   0.80788   0.81946   0.82104
 Alpha virt. eigenvalues --    0.82716   0.83174   0.83895   0.84827   0.85680
 Alpha virt. eigenvalues --    0.85878   0.87022   0.88015   0.88514   0.88741
 Alpha virt. eigenvalues --    0.89170   0.89813   0.90408   0.91084   0.91536
 Alpha virt. eigenvalues --    0.91804   0.92986   0.94369   0.94974   0.95341
 Alpha virt. eigenvalues --    0.96126   0.97606   0.97877   0.98078   0.99399
 Alpha virt. eigenvalues --    0.99957   1.01784   1.02193   1.03473   1.04392
 Alpha virt. eigenvalues --    1.04840   1.07839   1.08633   1.09196   1.11811
 Alpha virt. eigenvalues --    1.12711   1.14525   1.15150   1.16150   1.17306
 Alpha virt. eigenvalues --    1.18469   1.20416   1.22233   1.22731   1.23684
 Alpha virt. eigenvalues --    1.25747   1.27981   1.29785   1.30997   1.31816
 Alpha virt. eigenvalues --    1.36245   1.37883   1.39523   1.40057   1.41362
 Alpha virt. eigenvalues --    1.44341   1.45277   1.45948   1.47980   1.49127
 Alpha virt. eigenvalues --    1.49367   1.49928   1.51093   1.52868   1.55772
 Alpha virt. eigenvalues --    1.57415   1.59321   1.62651   1.63092   1.63358
 Alpha virt. eigenvalues --    1.65996   1.66301   1.66477   1.68020   1.68412
 Alpha virt. eigenvalues --    1.68925   1.71219   1.72325   1.73187   1.74733
 Alpha virt. eigenvalues --    1.75467   1.76599   1.77663   1.79003   1.79289
 Alpha virt. eigenvalues --    1.79728   1.80439   1.80896   1.81911   1.82645
 Alpha virt. eigenvalues --    1.84109   1.84778   1.85123   1.86081   1.86963
 Alpha virt. eigenvalues --    1.88109   1.89383   1.91369   1.92605   1.93996
 Alpha virt. eigenvalues --    1.95243   1.95896   1.97946   1.98264   1.99053
 Alpha virt. eigenvalues --    1.99570   2.02080   2.03169   2.04248   2.05681
 Alpha virt. eigenvalues --    2.06602   2.07332   2.10226   2.12108   2.13502
 Alpha virt. eigenvalues --    2.14922   2.16244   2.17237   2.25181   2.26259
 Alpha virt. eigenvalues --    2.26851   2.28159   2.31423   2.33097   2.34334
 Alpha virt. eigenvalues --    2.36584   2.38755   2.39419   2.40158   2.41031
 Alpha virt. eigenvalues --    2.43375   2.44740   2.47352   2.48852   2.49657
 Alpha virt. eigenvalues --    2.53830   2.54793   2.54954   2.57859   2.58858
 Alpha virt. eigenvalues --    2.60669   2.63886   2.65314   2.66122   2.67667
 Alpha virt. eigenvalues --    2.70745   2.75538   2.76207   2.77413   2.80330
 Alpha virt. eigenvalues --    2.82507   2.82670   2.83079   2.83245   2.84160
 Alpha virt. eigenvalues --    2.84290   2.85261   2.86440   2.87005   2.87642
 Alpha virt. eigenvalues --    2.88202   2.89726   2.90948   2.93116   2.93812
 Alpha virt. eigenvalues --    2.94459   2.95502   2.96820   2.97995   2.98440
 Alpha virt. eigenvalues --    2.99382   3.02818   3.03861   3.03985   3.06608
 Alpha virt. eigenvalues --    3.08181   3.15681   3.18482   3.19600   3.20988
 Alpha virt. eigenvalues --    3.26183   3.28205   3.29713   3.31175   3.31660
 Alpha virt. eigenvalues --    3.34574   3.35736   3.37205   3.38391   3.41348
 Alpha virt. eigenvalues --    3.42292   3.43376   3.45032   3.48092   3.50288
 Alpha virt. eigenvalues --    3.53690   3.56598   3.59867   3.63971   3.64848
 Alpha virt. eigenvalues --    3.76141   3.95827   4.47232   4.57428   4.62156
 Alpha virt. eigenvalues --    4.64251   4.72397   4.73651   4.74612   4.86632
 Alpha virt. eigenvalues --    4.91379   5.03214   5.44899   5.81732   5.84432
 Alpha virt. eigenvalues --    6.08711  22.21456  22.63316  58.49182  58.49239
 Alpha virt. eigenvalues --   58.50384  58.50654  58.50903  58.55662  58.56160
 Alpha virt. eigenvalues --   58.56276  58.56580  58.56814  95.61988 106.32228
 Alpha virt. eigenvalues --  106.33246 106.39317
  Beta  occ. eigenvalues --  -89.28810 -89.08199 -19.24737 -19.24238 -19.21135
  Beta  occ. eigenvalues --  -14.47291 -10.29782 -10.29706 -10.29182 -10.28765
  Beta  occ. eigenvalues --  -10.26140 -10.24867 -10.23195 -10.22685 -10.22596
  Beta  occ. eigenvalues --  -10.22316  -8.22127  -8.04442  -6.15849  -6.15806
  Beta  occ. eigenvalues --   -6.15691  -5.98283  -5.97905  -5.97183  -1.14691
  Beta  occ. eigenvalues --   -1.11288  -1.04456  -0.92397  -0.85740  -0.83950
  Beta  occ. eigenvalues --   -0.82127  -0.77059  -0.73832  -0.71840  -0.71111
  Beta  occ. eigenvalues --   -0.70124  -0.64437  -0.62343  -0.58652  -0.55898
  Beta  occ. eigenvalues --   -0.53051  -0.51817  -0.51018  -0.50416  -0.48369
  Beta  occ. eigenvalues --   -0.47545  -0.47195  -0.46355  -0.46119  -0.44984
  Beta  occ. eigenvalues --   -0.44312  -0.43855  -0.42517  -0.41643  -0.41195
  Beta  occ. eigenvalues --   -0.40217  -0.40016  -0.38850  -0.37686  -0.36338
  Beta  occ. eigenvalues --   -0.36110  -0.35707  -0.35689  -0.34544  -0.33581
  Beta  occ. eigenvalues --   -0.32872  -0.31769  -0.28253  -0.26734  -0.25981
  Beta virt. eigenvalues --   -0.05439  -0.03559  -0.02422   0.00467   0.01069
  Beta virt. eigenvalues --    0.02648   0.03447   0.03761   0.04602   0.04888
  Beta virt. eigenvalues --    0.05027   0.05482   0.05864   0.06197   0.06312
  Beta virt. eigenvalues --    0.06926   0.07859   0.08290   0.08445   0.09052
  Beta virt. eigenvalues --    0.09397   0.09436   0.09769   0.10364   0.10856
  Beta virt. eigenvalues --    0.11003   0.11422   0.11953   0.12742   0.13111
  Beta virt. eigenvalues --    0.13746   0.14089   0.14423   0.14867   0.15158
  Beta virt. eigenvalues --    0.15780   0.16087   0.16649   0.17024   0.17172
  Beta virt. eigenvalues --    0.17840   0.18491   0.18861   0.19364   0.19683
  Beta virt. eigenvalues --    0.19835   0.20146   0.21058   0.21405   0.22058
  Beta virt. eigenvalues --    0.22645   0.23295   0.23392   0.24245   0.24874
  Beta virt. eigenvalues --    0.25534   0.26211   0.26395   0.26737   0.27232
  Beta virt. eigenvalues --    0.27764   0.28227   0.28670   0.29161   0.29393
  Beta virt. eigenvalues --    0.30255   0.30677   0.30762   0.31588   0.31984
  Beta virt. eigenvalues --    0.31996   0.32832   0.33022   0.33738   0.34515
  Beta virt. eigenvalues --    0.35096   0.35834   0.36843   0.37869   0.38135
  Beta virt. eigenvalues --    0.40561   0.41784   0.42121   0.42900   0.43316
  Beta virt. eigenvalues --    0.44639   0.46285   0.47272   0.47603   0.48119
  Beta virt. eigenvalues --    0.50379   0.50790   0.51272   0.51948   0.52140
  Beta virt. eigenvalues --    0.52736   0.53098   0.53992   0.54456   0.55524
  Beta virt. eigenvalues --    0.56251   0.57037   0.57795   0.58341   0.59971
  Beta virt. eigenvalues --    0.60503   0.60899   0.61891   0.62732   0.63335
  Beta virt. eigenvalues --    0.64084   0.64450   0.65050   0.65611   0.65943
  Beta virt. eigenvalues --    0.66706   0.68059   0.68346   0.68753   0.70190
  Beta virt. eigenvalues --    0.71201   0.72181   0.72846   0.73187   0.73593
  Beta virt. eigenvalues --    0.74388   0.74893   0.75983   0.76554   0.77436
  Beta virt. eigenvalues --    0.78746   0.79118   0.80119   0.80908   0.82155
  Beta virt. eigenvalues --    0.82210   0.82781   0.83241   0.83988   0.84906
  Beta virt. eigenvalues --    0.85725   0.85997   0.87130   0.88042   0.88580
  Beta virt. eigenvalues --    0.88780   0.89208   0.89869   0.90503   0.91144
  Beta virt. eigenvalues --    0.91605   0.91966   0.93201   0.94516   0.95087
  Beta virt. eigenvalues --    0.95389   0.96316   0.97690   0.98123   0.99166
  Beta virt. eigenvalues --    0.99492   1.00175   1.02068   1.02231   1.03573
  Beta virt. eigenvalues --    1.04507   1.04962   1.07888   1.08692   1.09453
  Beta virt. eigenvalues --    1.12166   1.12781   1.14558   1.15201   1.16271
  Beta virt. eigenvalues --    1.17514   1.18789   1.20763   1.22627   1.23371
  Beta virt. eigenvalues --    1.24820   1.26625   1.28125   1.30232   1.31578
  Beta virt. eigenvalues --    1.32076   1.36652   1.38194   1.39588   1.40118
  Beta virt. eigenvalues --    1.41439   1.44368   1.45479   1.46239   1.48238
  Beta virt. eigenvalues --    1.49182   1.49441   1.49965   1.51174   1.52903
  Beta virt. eigenvalues --    1.55949   1.57485   1.59438   1.62667   1.63112
  Beta virt. eigenvalues --    1.63370   1.66234   1.66669   1.66919   1.68241
  Beta virt. eigenvalues --    1.68451   1.69233   1.71302   1.72384   1.73289
  Beta virt. eigenvalues --    1.74806   1.75534   1.76697   1.77727   1.79057
  Beta virt. eigenvalues --    1.79334   1.79801   1.80533   1.80931   1.81974
  Beta virt. eigenvalues --    1.82767   1.84221   1.84846   1.85226   1.86185
  Beta virt. eigenvalues --    1.87094   1.88243   1.89503   1.91682   1.92777
  Beta virt. eigenvalues --    1.94058   1.95253   1.95916   1.98106   1.98435
  Beta virt. eigenvalues --    1.99381   1.99788   2.02444   2.03453   2.04442
  Beta virt. eigenvalues --    2.06199   2.06909   2.07628   2.10604   2.12616
  Beta virt. eigenvalues --    2.13607   2.15155   2.16293   2.17715   2.25710
  Beta virt. eigenvalues --    2.26586   2.28121   2.28326   2.31512   2.33161
  Beta virt. eigenvalues --    2.34476   2.36677   2.38758   2.39421   2.40308
  Beta virt. eigenvalues --    2.41385   2.43634   2.44831   2.47508   2.49405
  Beta virt. eigenvalues --    2.49765   2.53945   2.55072   2.56283   2.58211
  Beta virt. eigenvalues --    2.58947   2.60708   2.63950   2.65423   2.66178
  Beta virt. eigenvalues --    2.68677   2.70924   2.75617   2.76482   2.77716
  Beta virt. eigenvalues --    2.80541   2.82525   2.82700   2.83234   2.84083
  Beta virt. eigenvalues --    2.84179   2.85279   2.85862   2.86954   2.87136
  Beta virt. eigenvalues --    2.88140   2.89273   2.89886   2.91203   2.93150
  Beta virt. eigenvalues --    2.94574   2.95376   2.95850   2.96969   2.98162
  Beta virt. eigenvalues --    2.98503   2.99857   3.02999   3.04317   3.04612
  Beta virt. eigenvalues --    3.06667   3.08298   3.15993   3.19318   3.19837
  Beta virt. eigenvalues --    3.24528   3.26189   3.28207   3.30182   3.31236
  Beta virt. eigenvalues --    3.31724   3.34612   3.35745   3.37251   3.38410
  Beta virt. eigenvalues --    3.41399   3.42381   3.43499   3.45082   3.48194
  Beta virt. eigenvalues --    3.50462   3.53870   3.56627   3.59911   3.64075
  Beta virt. eigenvalues --    3.64879   3.76163   3.97524   4.47302   4.57488
  Beta virt. eigenvalues --    4.62157   4.64370   4.72474   4.73756   4.74716
  Beta virt. eigenvalues --    4.86756   4.91418   5.03214   5.46794   5.81742
  Beta virt. eigenvalues --    5.84433   6.11204  22.21457  22.63316  58.49180
  Beta virt. eigenvalues --   58.49239  58.50366  58.50613  58.50845  58.55708
  Beta virt. eigenvalues --   58.56205  58.56321  58.56627  58.56815  95.62923
  Beta virt. eigenvalues --  106.32230 106.33246 106.40451
          Condensed to atoms (all electrons):
               1          2          3          4          5          6
     1  O    8.687502  -0.040393  -0.084491  -0.001860   0.037777  -0.003760
     2  N   -0.040393   7.382972   0.085507  -0.060161  -0.018830   0.016062
     3  C   -0.084491   0.085507   5.436836   0.243276  -0.103855   0.018317
     4  C   -0.001860  -0.060161   0.243276   5.179354   0.612143  -0.033369
     5  C    0.037777  -0.018830  -0.103855   0.612143   5.401889   0.193518
     6  C   -0.003760   0.016062   0.018317  -0.033369   0.193518   5.227227
     7  S   -0.000806   0.005214   0.000147  -0.002677  -0.130082   0.259189
     8  C   -0.069187   0.058843  -0.139142  -0.060042   0.212022  -0.075791
     9  C   -0.012832  -0.091998   0.006791  -0.002571  -0.067338   0.009312
    10  C   -0.007444  -0.088068   0.017952  -0.010437  -0.077328   0.004831
    11  C   -0.003736  -0.107017   0.310897  -0.047660  -0.008501  -0.002451
    12  C   -0.003852  -0.093770   0.313390  -0.075201  -0.004145  -0.001565
    13  H   -0.000667   0.003534  -0.035555   0.405902  -0.049857  -0.001668
    14  H    0.000048  -0.001936   0.002968   0.023264  -0.082573   0.420209
    15  H    0.000134  -0.003237  -0.000137   0.005358  -0.063588   0.407654
    16  H   -0.001412   0.016135  -0.003978   0.003908   0.000679  -0.000695
    17  H   -0.000633   0.006162  -0.000406   0.001137  -0.006102   0.002213
    18  H    0.007827  -0.024348   0.001597  -0.000915   0.008478  -0.001005
    19  H    0.008372  -0.026415  -0.001351  -0.001452   0.019703  -0.001390
    20  H   -0.000614   0.005025  -0.000757   0.001482  -0.003338   0.002278
    21  H   -0.000399   0.005440   0.001265   0.000845  -0.002955   0.003513
    22  H   -0.000165   0.003096  -0.054870  -0.004036   0.008612  -0.000720
    23  H   -0.000721   0.006569  -0.046821   0.001490   0.001522  -0.000050
    24  H    0.007300  -0.024974  -0.033174   0.015611  -0.002700   0.000081
    25  H    0.008216  -0.030606  -0.026406   0.015759  -0.001095   0.000020
    26  H   -0.000688   0.010276  -0.048065  -0.002486   0.000029  -0.000026
    27  H   -0.000589   0.012446  -0.061322  -0.004447   0.004876  -0.000555
    28  S   -0.000110  -0.000966  -0.000396  -0.031195  -0.005809  -0.004243
    29  O    0.000146   0.004806  -0.003932   0.030453   0.010538   0.004864
    30  O    0.000139  -0.001035  -0.006058   0.025438   0.018859  -0.024169
    31  C    0.000007   0.000103  -0.000667   0.003179   0.004302  -0.000382
    32  H    0.000000  -0.000007   0.000031  -0.000123  -0.000440   0.000177
    33  H   -0.000000   0.000005   0.000016  -0.000004   0.000093   0.000195
    34  H   -0.000000  -0.000001  -0.000023  -0.000491   0.000075  -0.000413
               7          8          9         10         11         12
     1  O   -0.000806  -0.069187  -0.012832  -0.007444  -0.003736  -0.003852
     2  N    0.005214   0.058843  -0.091998  -0.088068  -0.107017  -0.093770
     3  C    0.000147  -0.139142   0.006791   0.017952   0.310897   0.313390
     4  C   -0.002677  -0.060042  -0.002571  -0.010437  -0.047660  -0.075201
     5  C   -0.130082   0.212022  -0.067338  -0.077328  -0.008501  -0.004145
     6  C    0.259189  -0.075791   0.009312   0.004831  -0.002451  -0.001565
     7  S   15.869243  -0.003193   0.003138  -0.000467  -0.000197   0.000894
     8  C   -0.003193   5.432048   0.325424   0.325002   0.016772   0.020288
     9  C    0.003138   0.325424   5.012023  -0.085819  -0.005455   0.005097
    10  C   -0.000467   0.325002  -0.085819   5.035381   0.005380  -0.006242
    11  C   -0.000197   0.016772  -0.005455   0.005380   5.034325  -0.082045
    12  C    0.000894   0.020288   0.005097  -0.006242  -0.082045   5.023715
    13  H    0.000002   0.012576  -0.000892  -0.001548  -0.000857   0.002899
    14  H   -0.041987   0.002823   0.000024  -0.001843  -0.000160  -0.000036
    15  H   -0.041695   0.008055  -0.000999   0.005754   0.000308  -0.000067
    16  H    0.000824  -0.064541   0.412566   0.009178   0.000172  -0.001408
    17  H    0.001023  -0.034173   0.399428  -0.004147   0.000155  -0.000157
    18  H    0.000115  -0.033760   0.412180  -0.004054  -0.000043  -0.000112
    19  H    0.000056  -0.040724  -0.002659   0.415912  -0.000242   0.000077
    20  H   -0.000267  -0.038615  -0.003824   0.401566  -0.000072   0.000149
    21  H   -0.001038  -0.055910   0.008374   0.409690  -0.000958  -0.000063
    22  H    0.000007  -0.001991   0.000091  -0.001156   0.411154   0.008453
    23  H    0.000005  -0.001154   0.000152  -0.000073   0.406130  -0.002731
    24  H   -0.000013   0.000785  -0.000057  -0.000223   0.412003  -0.003916
    25  H   -0.000039  -0.002348   0.000022   0.000003  -0.004374   0.409893
    26  H   -0.000004  -0.000909  -0.000150   0.000186  -0.002343   0.406465
    27  H   -0.000033  -0.000275  -0.001455   0.000097   0.009082   0.412444
    28  S    0.310645   0.003135  -0.003456  -0.000196  -0.000839   0.002242
    29  O   -0.074921  -0.007930  -0.000797   0.000108   0.000284  -0.006547
    30  O   -0.083151  -0.003458   0.000723  -0.000027   0.001072   0.000514
    31  C   -0.052418  -0.001103   0.000221   0.000048   0.000055  -0.000202
    32  H   -0.000693   0.000137  -0.000069  -0.000002  -0.000000  -0.000007
    33  H    0.001508  -0.000039  -0.000002   0.000001  -0.000000  -0.000006
    34  H    0.002561   0.000120   0.000003  -0.000001  -0.000000   0.000009
              13         14         15         16         17         18
     1  O   -0.000667   0.000048   0.000134  -0.001412  -0.000633   0.007827
     2  N    0.003534  -0.001936  -0.003237   0.016135   0.006162  -0.024348
     3  C   -0.035555   0.002968  -0.000137  -0.003978  -0.000406   0.001597
     4  C    0.405902   0.023264   0.005358   0.003908   0.001137  -0.000915
     5  C   -0.049857  -0.082573  -0.063588   0.000679  -0.006102   0.008478
     6  C   -0.001668   0.420209   0.407654  -0.000695   0.002213  -0.001005
     7  S    0.000002  -0.041987  -0.041695   0.000824   0.001023   0.000115
     8  C    0.012576   0.002823   0.008055  -0.064541  -0.034173  -0.033760
     9  C   -0.000892   0.000024  -0.000999   0.412566   0.399428   0.412180
    10  C   -0.001548  -0.001843   0.005754   0.009178  -0.004147  -0.004054
    11  C   -0.000857  -0.000160   0.000308   0.000172   0.000155  -0.000043
    12  C    0.002899  -0.000036  -0.000067  -0.001408  -0.000157  -0.000112
    13  H    0.508739   0.002206  -0.000022  -0.000037  -0.000001   0.000004
    14  H    0.002206   0.489707  -0.014218  -0.000037  -0.000017   0.000001
    15  H   -0.000022  -0.014218   0.530655   0.000091  -0.000044   0.000012
    16  H   -0.000037  -0.000037   0.000091   0.537183  -0.019504  -0.015249
    17  H   -0.000001  -0.000017  -0.000044  -0.019504   0.566122  -0.020887
    18  H    0.000004   0.000001   0.000012  -0.015249  -0.020887   0.525106
    19  H    0.000005   0.000004  -0.000033  -0.000010  -0.000258   0.001924
    20  H    0.000002   0.000016  -0.000082   0.000092   0.001250  -0.000158
    21  H   -0.000017  -0.000005  -0.000225  -0.000139   0.000079   0.000034
    22  H    0.000112   0.000004   0.000002  -0.000001   0.000000  -0.000000
    23  H    0.000565   0.000001   0.000000  -0.000000  -0.000000   0.000000
    24  H    0.000011   0.000000  -0.000000  -0.000000   0.000000  -0.000002
    25  H   -0.000038  -0.000000   0.000000   0.000000   0.000000  -0.000008
    26  H    0.000150  -0.000001   0.000000   0.000008  -0.000000  -0.000000
    27  H   -0.000143  -0.000002   0.000000   0.000289   0.000010  -0.000007
    28  S    0.003349  -0.013841   0.002955  -0.000898  -0.000958   0.000368
    29  O   -0.000351   0.001000  -0.000796  -0.000038   0.000176  -0.000004
    30  O   -0.000950   0.011452  -0.001287   0.000070   0.000022  -0.000010
    31  C   -0.000110   0.000437  -0.000058   0.000034   0.000049  -0.000002
    32  H    0.000000   0.000005  -0.000000  -0.000000  -0.000000   0.000000
    33  H    0.000000  -0.000011   0.000000   0.000000   0.000000  -0.000000
    34  H    0.000001   0.000026  -0.000000  -0.000000  -0.000000   0.000000
              19         20         21         22         23         24
     1  O    0.008372  -0.000614  -0.000399  -0.000165  -0.000721   0.007300
     2  N   -0.026415   0.005025   0.005440   0.003096   0.006569  -0.024974
     3  C   -0.001351  -0.000757   0.001265  -0.054870  -0.046821  -0.033174
     4  C   -0.001452   0.001482   0.000845  -0.004036   0.001490   0.015611
[...]
     6  C   -0.049424  -0.000552
     7  S   -0.020891   0.000614
     8  C    0.216253  -0.037357
     9  C    0.063901   0.022716
    10  C    0.033410   0.022054
    11  C    0.040766   0.021419
    12  C    0.058191   0.023542
    28  S    0.891143  -0.000077
    29  O   -0.511524   0.000015
    30  O   -0.569719   0.000010
    31  C    0.150415  -0.000008
 Electronic spatial extent (au):  <R**2>=           4768.6798
 Charge=             -0.0000 electrons
 Dipole moment (field-independent basis, Debye):
    X=              4.2036    Y=              1.8464    Z=             -2.1536  Tot=              5.0712
 Quadrupole moment (field-independent basis, Debye-Ang):
   XX=           -107.7030   YY=           -109.0424   ZZ=           -116.1645
   XY=              5.5016   XZ=              6.7806   YZ=             -0.6308
 Traceless Quadrupole moment (field-independent basis, Debye-Ang):
   XX=              3.2670   YY=              1.9276   ZZ=             -5.1945
   XY=              5.5016   XZ=              6.7806   YZ=             -0.6308
 Octapole moment (field-independent basis, Debye-Ang**2):
  XXX=            187.3415  YYY=             -3.8384  ZZZ=              0.3129  XYY=            -14.0804
  XXY=             -8.2279  XXZ=             -9.3515  XZZ=             -0.0190  YZZ=              5.9976
  YYZ=             -2.3986  XYZ=              0.5446
 Hexadecapole moment (field-independent basis, Debye-Ang**3):
 XXXX=          -3963.9598 YYYY=          -1373.0765 ZZZZ=           -678.5491 XXXY=            -17.7020
 XXXZ=            125.1062 YYYX=            -16.1673 YYYZ=              0.9706 ZZZX=            -11.2248
 ZZZY=             -2.2037 XXYY=           -934.4805 XXZZ=           -858.0072 YYZZ=           -349.8938
 XXYZ=             -4.2646 YYXZ=             -4.3786 ZZXY=             14.7760
 N-N= 1.521214863843D+03 E-N=-6.497841091497D+03  KE= 1.459914051370D+03
                          Isotropic Fermi Contact Couplings
        Atom                 a.u.       MegaHertz       Gauss      10(-4) cm-1
     1  O(17)              0.08614     -52.22070     -18.63365     -17.41895
     2  N(14)              0.10209      32.98610      11.77026      11.00298
     3  C(13)             -0.01591     -17.88234      -6.38086      -5.96491
     4  C(13)             -0.00044      -0.48960      -0.17470      -0.16331
     5  C(13)             -0.00075      -0.84782      -0.30252      -0.28280
     6  C(13)             -0.00076      -0.85222      -0.30409      -0.28427
     7  S(33)              0.00003       0.01069       0.00382       0.00357
     8  C(13)             -0.01619     -18.19556      -6.49263      -6.06938
     9  C(13)              0.01521      17.09735       6.10076       5.70306
    10  C(13)              0.01624      18.25360       6.51334       6.08874
    11  C(13)              0.01541      17.32543       6.18214       5.77914
    12  C(13)              0.01601      17.99724       6.42186       6.00323
    13  H(1)              -0.00038      -1.67961      -0.59932      -0.56026
    14  H(1)              -0.00002      -0.08895      -0.03174      -0.02967
    15  H(1)               0.00003       0.15174       0.05415       0.05062
    16  H(1)              -0.00037      -1.65615      -0.59096      -0.55243
    17  H(1)               0.00038       1.67933       0.59923       0.56016
    18  H(1)              -0.00052      -2.34148      -0.83550      -0.78103
    19  H(1)              -0.00051      -2.28274      -0.81454      -0.76144
    20  H(1)               0.00034       1.52533       0.54428       0.50880
    21  H(1)              -0.00037      -1.64069      -0.58544      -0.54727
    22  H(1)              -0.00037      -1.64455      -0.58682      -0.54856
    23  H(1)               0.00030       1.34689       0.48060       0.44927
    24  H(1)              -0.00049      -2.16968      -0.77420      -0.72373
    25  H(1)              -0.00051      -2.28971      -0.81702      -0.76376
    26  H(1)               0.00043       1.92854       0.68815       0.64329
    27  H(1)              -0.00038      -1.67675      -0.59831      -0.55930
    28  S(33)             -0.00000      -0.00129      -0.00046      -0.00043
    29  O(17)             -0.00001       0.00469       0.00168       0.00157
    30  O(17)             -0.00003       0.01577       0.00563       0.00526
    31  C(13)              0.00000       0.00384       0.00137       0.00128
    32  H(1)               0.00000       0.00049       0.00017       0.00016
    33  H(1)               0.00000       0.00367       0.00131       0.00122
    34  H(1)              -0.00000      -0.00031      -0.00011      -0.00010
 --------------------------------------------------------
       Center         ----  Spin Dipole Couplings  ----
                      3XX-RR        3YY-RR        3ZZ-RR
 --------------------------------------------------------
     1   Atom       -0.395528     -0.892611      1.288139
     2   Atom       -0.221151     -0.565823      0.786973
     3   Atom       -0.006178      0.010604     -0.004426
     4   Atom        0.005639     -0.005269     -0.000370
     5   Atom        0.008995     -0.007116     -0.001879
     6   Atom        0.002091     -0.001308     -0.000783
     7   Atom        0.002894     -0.001488     -0.001406
     8   Atom        0.001503      0.005026     -0.006530
     9   Atom       -0.011134      0.000568      0.010567
    10   Atom       -0.008753      0.018891     -0.010139
    11   Atom        0.000823      0.001475     -0.002298
    12   Atom       -0.017117      0.017290     -0.000174
    13   Atom        0.001715     -0.001141     -0.000574
    14   Atom        0.001447     -0.001231     -0.000216
    15   Atom        0.001200     -0.000693     -0.000507
    16   Atom        0.003318     -0.003351      0.000033
    17   Atom        0.000403      0.002057     -0.002460
    18   Atom       -0.002149      0.004082     -0.001933
    19   Atom       -0.004879      0.009960     -0.005081
    20   Atom       -0.001198      0.003930     -0.002732
    21   Atom       -0.005542      0.000487      0.005055
    22   Atom       -0.005502     -0.002175      0.007676
    23   Atom       -0.002635      0.003580     -0.000946
    24   Atom       -0.002041      0.004404     -0.002362
    25   Atom       -0.004545      0.009230     -0.004685
    26   Atom       -0.002767      0.005358     -0.002591
    27   Atom       -0.000268      0.001792     -0.001524
    28   Atom        0.001435     -0.000733     -0.000702
    29   Atom        0.001491     -0.000700     -0.000791
    30   Atom        0.001065     -0.000600     -0.000464
    31   Atom        0.000669     -0.000332     -0.000338
    32   Atom        0.000626     -0.000313     -0.000313
    33   Atom        0.000522     -0.000250     -0.000272
    34   Atom        0.000553     -0.000286     -0.000267
 --------------------------------------------------------
                        XY            XZ            YZ
 --------------------------------------------------------
     1   Atom       -0.252894      1.250364     -0.491913
     2   Atom       -0.159443      0.741973     -0.297561
     3   Atom       -0.006729     -0.001352      0.006574
     4   Atom       -0.006419     -0.006500      0.003334
     5   Atom        0.002473     -0.007043     -0.001652
     6   Atom        0.000903     -0.001715     -0.000381
     7   Atom        0.001230      0.000672      0.000323
     8   Atom        0.011285     -0.001617     -0.003030
     9   Atom        0.010329      0.008150      0.022210
    10   Atom       -0.012203      0.004838     -0.017984
    11   Atom        0.015235      0.014282      0.018115
    12   Atom       -0.004043     -0.000342     -0.023412
    13   Atom       -0.002737     -0.002881      0.001784
    14   Atom        0.000292     -0.001645     -0.000224
    15   Atom        0.001539     -0.001639     -0.000925
    16   Atom        0.003701      0.007275      0.002008
    17   Atom        0.005231      0.000581      0.001101
    18   Atom        0.005454      0.002154      0.008032
    19   Atom       -0.001384     -0.001295     -0.005402
    20   Atom        0.003254     -0.001010     -0.003211
    21   Atom        0.000921      0.000285     -0.007396
    22   Atom        0.000684      0.002975      0.005409
    23   Atom       -0.000926     -0.000064      0.004721
    24   Atom        0.005428      0.001798      0.007196
    25   Atom       -0.001381     -0.001301     -0.005560
    26   Atom       -0.003462     -0.000637      0.000472
    27   Atom       -0.006043      0.005077     -0.004260
    28   Atom       -0.000200     -0.000183      0.000031
    29   Atom       -0.000551      0.000335     -0.000079
    30   Atom       -0.000377     -0.000557      0.000142
    31   Atom       -0.000042     -0.000050      0.000002
    32   Atom        0.000038      0.000068      0.000003
    33   Atom       -0.000123     -0.000023      0.000004
    34   Atom        0.000022     -0.000136     -0.000003
 --------------------------------------------------------


 ---------------------------------------------------------------------------------
              Anisotropic Spin Dipole Couplings in Principal Axis System
 ---------------------------------------------------------------------------------

       Atom             a.u.   MegaHertz   Gauss  10(-4) cm-1        Axes

              Baa    -1.0620    76.842    27.419    25.632  0.8667 -0.1153 -0.4853
     1 O(17)  Bbb    -0.9954    72.025    25.700    24.025  0.1894  0.9761  0.1065
              Bcc     2.0573  -148.868   -53.120   -49.657  0.4614 -0.1843  0.8678
 
              Baa    -0.6290   -24.259    -8.656    -8.092  0.1805  0.9773  0.1108
     2 N(14)  Bbb    -0.6139   -23.677    -8.449    -7.898  0.8693 -0.1058 -0.4829
              Bcc     1.2429    47.936    17.105    15.990  0.4602 -0.1835  0.8686
 
              Baa    -0.0089    -1.192    -0.425    -0.397  0.8442  0.4086 -0.3470
     3 C(13)  Bbb    -0.0063    -0.851    -0.304    -0.284  0.4426 -0.1661  0.8812
              Bcc     0.0152     2.043     0.729     0.681 -0.3025  0.8975  0.3211
 
              Baa    -0.0083    -1.108    -0.395    -0.370  0.3942  0.9169 -0.0627
     4 C(13)  Bbb    -0.0044    -0.595    -0.212    -0.198  0.4708 -0.1429  0.8706
              Bcc     0.0127     1.703     0.608     0.568  0.7893 -0.3727 -0.4880
 
              Baa    -0.0076    -1.022    -0.365    -0.341 -0.0544  0.9753  0.2140
     5 C(13)  Bbb    -0.0053    -0.708    -0.253    -0.236  0.4595 -0.1658  0.8726
              Bcc     0.0129     1.730     0.617     0.577  0.8865  0.1458 -0.4391
 
              Baa    -0.0016    -0.215    -0.077    -0.072  0.4649 -0.4144  0.7824
     6 C(13)  Bbb    -0.0015    -0.202    -0.072    -0.068  0.0011  0.8840  0.4675
              Bcc     0.0031     0.417     0.149     0.139  0.8854  0.2165 -0.4114
 
              Baa    -0.0019    -0.077    -0.027    -0.026 -0.1827  0.9100 -0.3721
     7 S(33)  Bbb    -0.0015    -0.060    -0.021    -0.020 -0.2338  0.3274  0.9155
              Bcc     0.0033     0.136     0.049     0.046  0.9550  0.2542  0.1529
 
              Baa    -0.0085    -1.144    -0.408    -0.381  0.6388 -0.6307 -0.4407
     8 C(13)  Bbb    -0.0067    -0.897    -0.320    -0.299  0.4285 -0.1841  0.8846
              Bcc     0.0152     2.040     0.728     0.681  0.6390  0.7539 -0.1526
 
              Baa    -0.0191    -2.569    -0.917    -0.857 -0.5414  0.7379 -0.4031
     9 C(13)  Bbb    -0.0130    -1.745    -0.622    -0.582  0.7910  0.2845 -0.5416
              Bcc     0.0321     4.313     1.539     1.439  0.2850  0.6121  0.7377
 
              Baa    -0.0189    -2.531    -0.903    -0.844  0.1386  0.4621  0.8759
    10 C(13)  Bbb    -0.0129    -1.726    -0.616    -0.576  0.9413  0.2135 -0.2616
              Bcc     0.0317     4.257     1.519     1.420 -0.3079  0.8607 -0.4053
 
              Baa    -0.0186    -2.502    -0.893    -0.835 -0.0544 -0.6450  0.7622
    11 C(13)  Bbb    -0.0132    -1.772    -0.632    -0.591  0.8279 -0.4559 -0.3268
              Bcc     0.0319     4.274     1.525     1.426  0.5583  0.6132  0.5588
 
              Baa    -0.0195    -2.615    -0.933    -0.872  0.7628  0.4048  0.5042
    12 C(13)  Bbb    -0.0143    -1.912    -0.682    -0.638 -0.6437  0.4012  0.6517
              Bcc     0.0337     4.527     1.615     1.510 -0.0615  0.8217 -0.5666
 
              Baa    -0.0028    -1.495    -0.534    -0.499  0.4749  0.8757 -0.0872
    13 H(1)   Bbb    -0.0025    -1.344    -0.480    -0.448  0.4757 -0.1721  0.8626
              Bcc     0.0053     2.839     1.013     0.947  0.7404 -0.4511 -0.4983
 
              Baa    -0.0013    -0.688    -0.245    -0.229  0.2000  0.8519  0.4840
    14 H(1)   Bbb    -0.0012    -0.643    -0.229    -0.214  0.4922 -0.5145  0.7022
              Bcc     0.0025     1.331     0.475     0.444  0.8472  0.0978 -0.5223
 
              Baa    -0.0016    -0.829    -0.296    -0.277 -0.4291  0.8953  0.1198
    15 H(1)   Bbb    -0.0015    -0.801    -0.286    -0.267  0.4699  0.1080  0.8761
              Bcc     0.0031     1.630     0.582     0.544  0.7714  0.4322 -0.4671
 
              Baa    -0.0061    -3.264    -1.165    -1.089  0.6523 -0.4096 -0.6378
    16 H(1)   Bbb    -0.0043    -2.278    -0.813    -0.760  0.0559  0.8651 -0.4984
              Bcc     0.0104     5.542     1.978     1.849  0.7559  0.2895  0.5872
 
              Baa    -0.0041    -2.196    -0.783    -0.732  0.7349 -0.6545  0.1776
    17 H(1)   Bbb    -0.0026    -1.372    -0.490    -0.458 -0.2205  0.0172  0.9752
              Bcc     0.0067     3.568     1.273     1.190  0.6413  0.7559  0.1317
 
              Baa    -0.0080    -4.244    -1.515    -1.416  0.3187 -0.6218  0.7154
    18 H(1)   Bbb    -0.0040    -2.145    -0.765    -0.715  0.8697 -0.1081 -0.4815
              Bcc     0.0120     6.389     2.280     2.131  0.3768  0.7757  0.5063
 
              Baa    -0.0078    -4.151    -1.481    -1.385  0.5013  0.2876  0.8161
    19 H(1)   Bbb    -0.0040    -2.118    -0.756    -0.707  0.8635 -0.1055 -0.4932
              Bcc     0.0118     6.270     2.237     2.091 -0.0558  0.9519 -0.3012
 
              Baa    -0.0041    -2.175    -0.776    -0.725 -0.1689  0.4253  0.8892
    20 H(1)   Bbb    -0.0026    -1.394    -0.498    -0.465  0.9027 -0.2955  0.3127
              Bcc     0.0067     3.569     1.274     1.191  0.3957  0.8555 -0.3340
 
              Baa    -0.0062    -3.316    -1.183    -1.106  0.8071 -0.4841 -0.3381
    21 H(1)   Bbb    -0.0043    -2.297    -0.819    -0.766  0.5901  0.6420  0.4894
              Bcc     0.0105     5.612     2.003     1.872 -0.0198 -0.5945  0.8038
 
              Baa    -0.0062    -3.335    -1.190    -1.112  0.9321  0.2226 -0.2856
    22 H(1)   Bbb    -0.0044    -2.334    -0.833    -0.779 -0.3125  0.8931 -0.3237
              Bcc     0.0106     5.669     2.023     1.891  0.1830  0.3910  0.9020
 
              Baa    -0.0041    -2.166    -0.773    -0.722 -0.3067 -0.5269  0.7926
    23 H(1)   Bbb    -0.0026    -1.369    -0.488    -0.457  0.9477 -0.0919  0.3056
              Bcc     0.0066     3.535     1.261     1.179 -0.0881  0.8449  0.5276
 
              Baa    -0.0075    -3.988    -1.423    -1.330  0.3610 -0.5983  0.7153
    24 H(1)   Bbb    -0.0038    -2.040    -0.728    -0.680  0.8487 -0.1070 -0.5179
              Bcc     0.0113     6.028     2.151     2.011  0.3864  0.7941  0.4692
 
              Baa    -0.0076    -4.045    -1.443    -1.349  0.4901  0.3097  0.8148
    25 H(1)   Bbb    -0.0036    -1.945    -0.694    -0.649  0.8699 -0.1139 -0.4800
              Bcc     0.0112     5.990     2.137     1.998 -0.0558  0.9440 -0.3252
 
              Baa    -0.0042    -2.223    -0.793    -0.741  0.9085  0.3168  0.2724
    26 H(1)   Bbb    -0.0025    -1.342    -0.479    -0.448 -0.2321 -0.1595  0.9595
              Bcc     0.0067     3.565     1.272     1.189 -0.3475  0.9350  0.0714
 
              Baa    -0.0062    -3.330    -1.188    -1.111  0.7665  0.2668 -0.5842
    27 H(1)   Bbb    -0.0042    -2.257    -0.805    -0.753  0.2502  0.7138  0.6542
              Bcc     0.0105     5.587     1.993     1.864 -0.5915  0.6476 -0.4803
 
              Baa    -0.0008    -0.031    -0.011    -0.010  0.0575  0.9396 -0.3373
    28 S(33)  Bbb    -0.0007    -0.029    -0.010    -0.010  0.1105  0.3298  0.9376
              Bcc     0.0015     0.060     0.021     0.020  0.9922 -0.0912 -0.0848
 
              Baa    -0.0008     0.061     0.022     0.020 -0.1470 -0.0198  0.9889
    29 O(17)  Bbb    -0.0008     0.060     0.021     0.020  0.2235  0.9733  0.0528
              Bcc     0.0017    -0.121    -0.043    -0.040  0.9636 -0.2288  0.1387
 
              Baa    -0.0007     0.050     0.018     0.017  0.0663  0.9106 -0.4079
    30 O(17)  Bbb    -0.0006     0.046     0.016     0.015  0.3609  0.3593  0.8606
              Bcc     0.0013    -0.096    -0.034    -0.032  0.9303 -0.2043 -0.3048
 
              Baa    -0.0003    -0.046    -0.016    -0.015  0.0477 -0.0312  0.9984
    31 C(13)  Bbb    -0.0003    -0.045    -0.016    -0.015  0.0435  0.9986  0.0291
              Bcc     0.0007     0.090     0.032     0.030  0.9979 -0.0420 -0.0490
 
              Baa    -0.0003    -0.169    -0.060    -0.057 -0.0715  0.0007  0.9974
    32 H(1)   Bbb    -0.0003    -0.168    -0.060    -0.056 -0.0403  0.9992 -0.0036
              Bcc     0.0006     0.337     0.120     0.112  0.9966  0.0404  0.0714
 
              Baa    -0.0003    -0.145    -0.052    -0.048  0.0304  0.0065  0.9995
    33 H(1)   Bbb    -0.0003    -0.144    -0.051    -0.048  0.1535  0.9881 -0.0111
              Bcc     0.0005     0.289     0.103     0.096  0.9877 -0.1538 -0.0291
 
              Baa    -0.0003    -0.154    -0.055    -0.051  0.1613 -0.2370  0.9580
    34 H(1)   Bbb    -0.0003    -0.153    -0.055    -0.051  0.0130  0.9712  0.2381
              Bcc     0.0006     0.307     0.110     0.102  0.9868  0.0259 -0.1597
 

 ---------------------------------------------------------------------------------

 No NMR shielding tensors so no spin-rotation constants.
 Leave Link  601 at Wed Jun 12 15:29:34 2019, MaxMem=  8053063680 cpu:               0.0 elap:               1.9
 (Enter /data2/g16/g16/l9999.exe)
 1\1\GINC-CU12\SP\UPBE1PBE\Gen\C10H18N1O3S2(2)\ROOT\12-Jun-2019\0\\#p g
 en 6d pbe1pbe\\start preoptimized\\0,2\O,0,-3.713982,0.186249,0.961701
 \N,0,-2.625931,0.040069,0.346221\C,0,-2.165833,-1.267829,-0.164232\C,0
 ,-0.871083,-0.857792,-0.799939\C,0,-0.600804,0.443974,-0.653188\C,0,0.
 607445,1.123076,-1.196688\S,0,1.944867,1.446161,0.033285\C,0,-1.697106
 ,1.165435,0.103041\C,0,-1.259336,1.75511,1.446311\C,0,-2.404699,2.2292
 54,-0.741614\C,0,-3.181301,-1.818744,-1.16768\C,0,-1.969442,-2.243264,
 0.999931\H,0,-0.223433,-1.569674,-1.305213\H,0,1.064089,0.536949,-1.99
 8342\H,0,0.386048,2.124395,-1.583368\H,0,-0.707815,1.01974,2.038919\H,
 0,-0.618983,2.631265,1.300761\H,0,-2.151628,2.062391,2.001322\H,0,-3.3
 06992,2.559735,-0.217646\H,0,-1.758885,3.10093,-0.895869\H,0,-2.695398
 ,1.827468,-1.717586\H,0,-3.307885,-1.134758,-2.012764\H,0,-2.849784,-2
 .790133,-1.549776\H,0,-4.149369,-1.946848,-0.673238\H,0,-2.918551,-2.3
 71814,1.53017\H,0,-1.638377,-3.218213,0.626768\H,0,-1.218209,-1.86865,
 1.701599\S,0,2.756123,-0.532188,0.107576\O,0,2.331632,-1.21049,1.35042
 4\O,0,2.502839,-1.175762,-1.206259\C,0,4.510088,-0.17658,0.242546\H,0,
 4.664952,0.438218,1.131487\H,0,4.994013,-1.149987,0.356306\H,0,4.83039
 8,0.329114,-0.668695\\Version=AM64L-G16RevB.01\State=2-A\HF=-1467.5488
 248\S2=0.754976\S2-1=0.\S2A=0.750017\RMSD=8.318e-09\Dipole=1.6538084,0
 .7264385,-0.8472988\Quadrupole=2.428907,1.4331009,-3.8620079,4.0903113
 ,5.0412173,-0.4690069\PG=C01 [X(C10H18N1O3S2)]\\@


 "A LITTLE BIT GOES A LONG WAY"
 R.S. MULLIKEN AS QUOTED BY K. RUEDENBERG
 Elapsed time:       0 days  0 hours  6 minutes 21.4 seconds.
 File lengths (MBytes):  RWF=    181 Int=      0 D2E=      0 Chk=     15 Scr=      1
 Normal termination of Gaussian 16 at Wed Jun 12 15:29:34 2019.
