 Entering Gaussian System, Link 0=g16
 AtFile(1): /home/malgo/Basis_sets/n07d_pbe0.gbs
            -H 0
             6-31G
             S   1 1.00       0.000000000000
                  0.4000000000D+00  0.10000000D+01
             P   1 1.00       0.000000000000
                  0.7500000000D+00  0.10000000D+01
             ****
             -He 0
             6-31+G**
             ****
             -Li 0
             6-31+G**
             ****
             -Be 0
             6-31+G**
             ****
             -B 0
             6-31G
             S   1 1.00       0.000000000000
                  0.7000000000D+01  0.1000000000D+01
             P   1 1.00       0.000000000000
                  0.3500000000D-01  0.1000000000D+01
             D   1 1.00
                  0.3430000000D+00  0.1000000000D+01
             ****
             -C 0
             6-31G
             S   1 1.00       0.000000000000
                  0.8700000000D+01  0.1000000000D+01
             P   1 1.00       0.000000000000
                  0.5000000000D-01  0.1000000000D+01
             D   1 1.00
                  0.8200000000D+00  0.1000000000D+01
             ****
             -N 0
             6-31G
             S   1 1.00       0.000000000000
                  0.1370000000D+02  0.1000000000D+01
             P   1 1.00       0.000000000000
                  0.5300000000D-01  0.1000000000D+01
             D   1 1.00       0.000000000000
                  0.1015000000D+01  0.1000000000D+01
             ****
             -O 0
             6-31G
             S   1 1.00
                  0.1600000000D+02  0.1000000000D+01
             P   1 1.00       0.000000000000
                  0.6500000000D-01  0.1000000000D+01
             D   1 1.00        0.000000000000
                  0.1190000000D+01  0.1000000000D+01
             D   1 1.00        0.000000000000
                  0.1800000000D+00  0.1000000000D+01
             ****
             -F 0
             6-31G
             S   1 1.00
                  0.1770000000D+02  0.1000000000D+01
             P   1 1.00       0.000000000000
                  0.8300000000D-01  0.1000000000D+01
             D   1 1.00       0.000000000000
                  1.3700000000D+00  0.1000000000D+01
             D   1 1.00       0.000000000000
                  0.2300000000D+00  0.1000000000D+01
             ****
             -Ne 0
             6-31+G**
             ****
             -Na 0
             6-31+G**
             ****
             -Mg 0
             6-31+G**
             ****
             -Al 0
             6-31G
             S   1 1.00      0.000000000000
                  0.3100000000D+01  0.1000000000D+01
             P   1 1.00      0.000000000000
                  0.1500000000D-01  0.1000000000D+01
             D   1 1.00      0.000000000000
                  0.1890000000D+00  0.1000000000D+01
             ****
             -Si 0
             6-31G
             S   1 1.00      0.000000000000
                  0.5000000000D+01  0.1000000000D+01
             P   1 1.00       0.000000000000
                  0.3300000000D-01  0.1000000000D+01
             D   1 1.0        0.000000000000
                  0.2750000000D+00  0.1000000000D+01
             ****
             -P  0
             6-31G
             S   1 1.00       0.000000000000
                  0.6300000000D+01  0.1000000000D+01
             P   1 1.00       0.000000000000
                  0.3500000000D-01  0.1000000000D+01
             D   1 1.00       0.000000000000
                  0.3730000000D+00  0.1000000000D+01
             ****
             -S  0
             6-31G
             S   1  1.00      0.000000000000
                  0.7500000000D+01  0.1000000000D+01
             P   1 1.00       0.000000000000
                  0.4100000000D-01  0.1000000000D+01
             D   1 1.00       0.000000000000
                  0.4790000000D+00  0.1000000000D+01
             ****
            -Cl 0
             6-31G
             S   1 1.00       0.000000000000
                  0.8500000000D+01  0.1000000000D+01
             P   1 1.00       0.000000000000
                  0.4800000000D-01  0.1000000000D+01
             D   1 1.00       0.000000000000
                  0.6000000000D+00  0.1000000000D+01
             D   1 1.00       0.000000000000
                  0.1960000000D+00  0.1000000000D+01
             ****
            -Br 0
             S   3 1.00       0.000000000000
                  0.4721881000D+01  0.1749732514D+00
                  0.2257555000D+01 -0.7074172290D+00
                  0.3896080000D+00  0.1258999543D+01
             S   1 1.00       0.000000000000
                  0.1471340000D+00  0.1000000000D+01
             P   3 1.00       0.000000000000
                  0.1896942000D+01 -0.2464576731D+00
                  0.9108990000D+00  0.3623179892D+00
                  0.3168550000D+00  0.8338469725D+00
             P   1 1.00       0.000000000000
                  0.1095030000D+00  0.1000000000D+01
             P   1 1.00       0.000000000000
                  0.3609700000D-01  0.1000000000D+01
             D   1 1.00
                  0.4750000000D+00  0.1000000000D+01
             D   1 1.00
                  0.1280000000D+00  0.1000000000D+01
             ****
            -I   0
             S   3 1.00       0.000000000000
                  0.2122765000D+01  0.2063429899D+01
                  0.1770481000D+01 -0.2869526473D+01
                  0.3130840000D+00  0.1404747074D+01
             S   1 1.00       0.000000000000
                  0.1320000000D+00  0.1000000000D+01
             P   3 1.00       0.000000000000
                  0.2432887000D+01  0.7732753148D+00
                  0.2137249000D+01 -0.1020833156D+01
                  0.3145460000D+00  0.1095666871D+01
             P   1 1.00       0.000000000000
                  0.1049450000D+00  0.1000000000D+01
             P   1 1.00       0.000000000000
                  0.3264100000D-01  0.1000000000D+01
             D   1 1.00
                  0.300000000          1.00000000
             D   1 1.00
                  0.090000000          1.00000000
             ****
             -Zn 0
             SP   6 1.00       0.000000000000
                  0.6936492000D+02 -0.4440098182D-02 -0.7689261805D-02
                  0.2362082000D+02  0.7505253308D-01 -0.2997981924D-01
                  0.1018471000D+02  0.2533111104D+00  0.7082410821D-01
                  0.4334082000D+01 -0.2881897118D+00  0.4046140897D+00
                  0.1810918000D+01 -0.7267052298D+00  0.4882324876D+00
                  0.7148410000D+00 -0.2133439088D+00  0.1751969956D+00
             SP   3 1.00       0.000000000000
                  0.2823842000D+01  0.4898545031D-01 -0.1586762981D+00
                  0.1039543000D+01  0.2592794075D+00  0.8379326898D-01
                  0.1432640000D+00 -0.1115711463D+01  0.9840546881D+00
             SP   1 1.00       0.000000000000
                  0.4929600000D-01  0.1000000000D+01  0.1000000000D+01
             S    1 1.00       0.000000000000
                  0.1620000000D+00  0.1000000000D+01
             D    3 1.00       0.000000000000
                  0.3370764000D+02  0.9262647815D-01
                  0.9061106000D+01  0.4002979920D+00
                  0.2738383000D+01  0.6896607863D+00
             D    1 1.00
                  0.2440000000D+01  0.1000000000D+01
             D    1 1.00       0.000000000000
                  0.7302940000D+00  0.1000000000D+01
             D    1 1.00       0.000000000000
                  0.1620000000D+00  0.1000000000D+01
            ****
 Initial command:
 /data2/g16/g16/l1.exe "/tmp/Gau-3312.inp" -scrdir="/tmp/"
 Entering Link 1 = /data2/g16/g16/l1.exe PID=      3313.
  
 Copyright (c) 1988-2017, Gaussian, Inc.  All Rights Reserved.
  
 This is part of the Gaussian(R) 16 program.  It is based on
 the Gaussian(R) 09 system (copyright 2009, Gaussian, Inc.),
 the Gaussian(R) 03 system (copyright 2003, Gaussian, Inc.),
 the Gaussian(R) 98 system (copyright 1998, Gaussian, Inc.),
 the Gaussian(R) 94 system (copyright 1995, Gaussian, Inc.),
 the Gaussian 92(TM) system (copyright 1992, Gaussian, Inc.),
 the Gaussian 90(TM) system (copyright 1990, Gaussian, Inc.),
 the Gaussian 88(TM) system (copyright 1988, Gaussian, Inc.),
 the Gaussian 86(TM) system (copyright 1986, Carnegie Mellon
 University), and the Gaussian 82(TM) system (copyright 1983,
 Carnegie Mellon University). Gaussian is a federally registered
 trademark of Gaussian, Inc.
  
 This software contains proprietary and confidential information,
 including trade secrets, belonging to Gaussian, Inc.
  
 This software is provided under written license and may be
 used, copied, transmitted, or stored only in accord with that
 written license.
  
 The following legend is applicable only to US Government
 contracts under FAR:
  
                    RESTRICTED RIGHTS LEGEND
  
 Use, reproduction and disclosure by the US Government is
 subject to restrictions as set forth in subparagraphs (a)
 and (c) of the Commercial Computer Software - Restricted
 Rights clause in FAR 52.227-19.
  
 Gaussian, Inc.
 340 Quinnipiac St., Bldg. 40, Wallingford CT 06492
  
  
 ---------------------------------------------------------------
 Warning -- This program may not be used in any manner that
 competes with the business of Gaussian, Inc. or will provide
 assistance to any competitor of Gaussian, Inc.  The licensee
 of this program is prohibited from giving any competitor of
 Gaussian, Inc. access to this program.  By using this program,
 the user acknowledges that Gaussian, Inc. is engaged in the
 business of creating and licensing software in the field of
 computational chemistry and represents and warrants to the
 licensee that it is not a competitor of Gaussian, Inc. and that
 it will not use this program in any manner prohibited above.
 ---------------------------------------------------------------
  

 Cite this work as:
 Gaussian 16, Revision B.01,
 M. J. Frisch, G. W. Trucks, H. B. Schlegel, G. E. Scuseria, 
 M. A. Robb, J. R. Cheeseman, G. Scalmani, V. Barone, 
 G. A. Petersson, H. Nakatsuji, X. Li, M. Caricato, A. V. Marenich, 
 J. Bloino, B. G. Janesko, R. Gomperts, B. Mennucci, H. P. Hratchian, 
 J. V. Ortiz, A. F. Izmaylov, J. L. Sonnenberg, D. Williams-Young, 
 F. Ding, F. Lipparini, F. Egidi, J. Goings, B. Peng, A. Petrone, 
 T. Henderson, D. Ranasinghe, V. G. Zakrzewski, J. Gao, N. Rega, 
 G. Zheng, W. Liang, M. Hada, M. Ehara, K. Toyota, R. Fukuda, 
 J. Hasegawa, M. Ishida, T. Nakajima, Y. Honda, O. Kitao, H. Nakai, 
 T. Vreven, K. Throssell, J. A. Montgomery, Jr., J. E. Peralta, 
 F. Ogliaro, M. J. Bearpark, J. J. Heyd, E. N. Brothers, K. N. Kudin, 
 V. N. Staroverov, T. A. Keith, R. Kobayashi, J. Normand, 
 K. Raghavachari, A. P. Rendell, J. C. Burant, S. S. Iyengar, 
 J. Tomasi, M. Cossi, J. M. Millam, M. Klene, C. Adamo, R. Cammi, 
 J. W. Ochterski, R. L. Martin, K. Morokuma, O. Farkas, 
 J. B. Foresman, and D. J. Fox, Gaussian, Inc., Wallingford CT, 2016.
 
 ******************************************
 Gaussian 16:  AM64L-G16RevB.01 20-Dec-2017
                17-Jun-2019 
 ******************************************
 %chk=MTN_PBE0_0.26.chk
 %mem=60GB
 %nprocshared=12
 Will use up to   12 processors via shared memory.
 -----------------
 #p gen 6d pbe1pbe
 -----------------
 1/38=1,172=1/1;
 2/12=2,17=6,18=5,40=1/2;
 3/5=7,8=2,11=2,25=1,30=1,74=-13/1,2,3;
 4//1;
 5/5=2,38=5/2;
 6/7=2,8=2,9=2,10=2,28=1/1;
 99/5=1,9=1/99;
 Leave Link    1 at Mon Jun 17 21:28:04 2019, MaxMem=  8053063680 cpu:               0.0 elap:               0.1
 (Enter /data2/g16/g16/l101.exe)
 ------------------
 start preoptimized
 ------------------
 Symbolic Z-matrix:
 Charge =  0 Multiplicity = 2
 O                    -3.66458   0.16545   1.0527 
 N                    -2.64413   0.04527   0.30982 
 C                    -2.17103  -1.26783  -0.17203 
 C                    -0.86068  -0.86559  -0.77914 
 C                    -0.5956    0.43877  -0.64799 
 C                     0.61005   1.12048  -1.19409 
 S                     1.94747   1.45136   0.03329 
 C                    -1.70231   1.16543   0.09004 
 C                    -1.28534   1.74471   1.44371 
 C                    -2.3839    2.23965  -0.76501 
 C                    -3.1501   -1.82914  -1.20668 
 C                    -2.02144  -2.22766   1.01293 
 H                    -0.20523  -1.58007  -1.27141 
 H                     1.06669   0.53435  -1.99314 
 H                     0.38345   2.11919  -1.58337 
 H                    -0.75202   1.00154   2.04152 
 H                    -0.63458   2.61567   1.31116 
 H                    -2.18543   2.05459   1.98312 
 H                    -3.29659   2.57534  -0.25925 
 H                    -1.73029   3.10873  -0.90107 
 H                    -2.6564    1.84567  -1.74879 
 H                    -3.24548  -1.15296  -2.06476 
 H                    -2.80298  -2.80573  -1.56798 
 H                    -4.13637  -1.95465  -0.74864 
 H                    -2.99135  -2.33801   1.50937 
 H                    -1.68518  -3.21041   0.66317 
 H                    -1.29361  -1.85045   1.7354 
 S                     2.75352  -0.52959   0.10498 
 O                     2.32643  -1.20789   1.34782 
 O                     2.49764  -1.16796  -1.20886 
 C                     4.51009  -0.18438   0.23735 
 H                     4.67015   0.42782   1.12889 
 H                     4.98881  -1.16039   0.34851 
 H                     4.8304    0.32391  -0.6713 
 
 ITRead=  0  0  0  0  0  0  0  0  0  0  0  0  0  0  0  0  0  0  0  0
 ITRead=  0  0  0  0  0  0  0  0  0  0  0  0  0  0
 MicOpt= -1 -1 -1 -1 -1 -1 -1 -1 -1 -1 -1 -1 -1 -1 -1 -1 -1 -1 -1 -1
 MicOpt= -1 -1 -1 -1 -1 -1 -1 -1 -1 -1 -1 -1 -1 -1
 NAtoms=     34 NQM=       34 NQMF=       0 NMMI=      0 NMMIF=      0
                NMic=       0 NMicF=      0.
                    Isotopes and Nuclear Properties:
 (Nuclear quadrupole moments (NQMom) in fm**2, nuclear magnetic moments (NMagM)
  in nuclear magnetons)

  Atom         1           2           3           4           5           6           7           8           9          10
 IAtWgt=          16          14          12          12          12          12          32          12          12          12
 AtmWgt=  15.9949146  14.0030740  12.0000000  12.0000000  12.0000000  12.0000000  31.9720718  12.0000000  12.0000000  12.0000000
 NucSpn=           0           2           0           0           0           0           0           0           0           0
 AtZEff=   0.0000000   0.0000000   0.0000000   0.0000000   0.0000000   0.0000000   0.0000000   0.0000000   0.0000000   0.0000000
 NQMom=    0.0000000   2.0440000   0.0000000   0.0000000   0.0000000   0.0000000   0.0000000   0.0000000   0.0000000   0.0000000
 NMagM=    0.0000000   0.4037610   0.0000000   0.0000000   0.0000000   0.0000000   0.0000000   0.0000000   0.0000000   0.0000000
 AtZNuc=   8.0000000   7.0000000   6.0000000   6.0000000   6.0000000   6.0000000  16.0000000   6.0000000   6.0000000   6.0000000

  Atom        11          12          13          14          15          16          17          18          19          20
 IAtWgt=          12          12           1           1           1           1           1           1           1           1
 AtmWgt=  12.0000000  12.0000000   1.0078250   1.0078250   1.0078250   1.0078250   1.0078250   1.0078250   1.0078250   1.0078250
 NucSpn=           0           0           1           1           1           1           1           1           1           1
 AtZEff=   0.0000000   0.0000000   0.0000000   0.0000000   0.0000000   0.0000000   0.0000000   0.0000000   0.0000000   0.0000000
 NQMom=    0.0000000   0.0000000   0.0000000   0.0000000   0.0000000   0.0000000   0.0000000   0.0000000   0.0000000   0.0000000
 NMagM=    0.0000000   0.0000000   2.7928460   2.7928460   2.7928460   2.7928460   2.7928460   2.7928460   2.7928460   2.7928460
 AtZNuc=   6.0000000   6.0000000   1.0000000   1.0000000   1.0000000   1.0000000   1.0000000   1.0000000   1.0000000   1.0000000

  Atom        21          22          23          24          25          26          27          28          29          30
 IAtWgt=           1           1           1           1           1           1           1          32          16          16
 AtmWgt=   1.0078250   1.0078250   1.0078250   1.0078250   1.0078250   1.0078250   1.0078250  31.9720718  15.9949146  15.9949146
 NucSpn=           1           1           1           1           1           1           1           0           0           0
 AtZEff=   0.0000000   0.0000000   0.0000000   0.0000000   0.0000000   0.0000000   0.0000000   0.0000000   0.0000000   0.0000000
 NQMom=    0.0000000   0.0000000   0.0000000   0.0000000   0.0000000   0.0000000   0.0000000   0.0000000   0.0000000   0.0000000
 NMagM=    2.7928460   2.7928460   2.7928460   2.7928460   2.7928460   2.7928460   2.7928460   0.0000000   0.0000000   0.0000000
 AtZNuc=   1.0000000   1.0000000   1.0000000   1.0000000   1.0000000   1.0000000   1.0000000  16.0000000   8.0000000   8.0000000

  Atom        31          32          33          34
 IAtWgt=          12           1           1           1
 AtmWgt=  12.0000000   1.0078250   1.0078250   1.0078250
 NucSpn=           0           1           1           1
 AtZEff=   0.0000000   0.0000000   0.0000000   0.0000000
 NQMom=    0.0000000   0.0000000   0.0000000   0.0000000
 NMagM=    0.0000000   2.7928460   2.7928460   2.7928460
 AtZNuc=   6.0000000   1.0000000   1.0000000   1.0000000
 Leave Link  101 at Mon Jun 17 21:28:05 2019, MaxMem=  8053063680 cpu:               0.0 elap:               0.2
 (Enter /data2/g16/g16/l202.exe)
                          Input orientation:                          
 ---------------------------------------------------------------------
 Center     Atomic      Atomic             Coordinates (Angstroms)
 Number     Number       Type             X           Y           Z
 ---------------------------------------------------------------------
      1          8           0       -3.664582    0.165449    1.052701
      2          7           0       -2.644131    0.045269    0.309821
      3          6           0       -2.171033   -1.267829   -0.172032
      4          6           0       -0.860683   -0.865592   -0.779139
      5          6           0       -0.595604    0.438774   -0.647988
      6          6           0        0.610045    1.120476   -1.194088
      7         16           0        1.947467    1.451361    0.033285
      8          6           0       -1.702306    1.165435    0.090041
      9          6           0       -1.285336    1.744710    1.443711
     10          6           0       -2.383899    2.239654   -0.765014
     11          6           0       -3.150101   -1.829144   -1.206680
     12          6           0       -2.021442   -2.227664    1.012931
     13          1           0       -0.205233   -1.580074   -1.271413
     14          1           0        1.066689    0.534349   -1.993142
     15          1           0        0.383448    2.119195   -1.583368
     16          1           0       -0.752015    1.001540    2.041519
     17          1           0       -0.634583    2.615665    1.311161
     18          1           0       -2.185428    2.054591    1.983122
     19          1           0       -3.296592    2.575335   -0.259246
     20          1           0       -1.730285    3.108730   -0.901069
     21          1           0       -2.656398    1.845668   -1.748786
     22          1           0       -3.245485   -1.152958   -2.064764
     23          1           0       -2.802984   -2.805733   -1.567976
     24          1           0       -4.136369   -1.954648   -0.748638
     25          1           0       -2.991351   -2.338014    1.509370
     26          1           0       -1.685177   -3.210413    0.663168
     27          1           0       -1.293609   -1.850450    1.735399
     28         16           0        2.753523   -0.529588    0.104976
     29          8           0        2.326432   -1.207890    1.347824
     30          8           0        2.497639   -1.167962   -1.208859
     31          6           0        4.510088   -0.184380    0.237346
     32          1           0        4.670152    0.427818    1.128887
     33          1           0        4.988813   -1.160387    0.348506
     34          1           0        4.830398    0.323914   -0.671295
 ---------------------------------------------------------------------
                    Distance matrix (angstroms):
                    1          2          3          4          5
     1  O    0.000000
     2  N    1.267925   0.000000
     3  C    2.405191   1.476560   0.000000
     4  C    3.504359   2.279515   1.499130   0.000000
     5  C    3.519329   2.295366   2.370866   1.337475   0.000000
     6  C    4.922659   3.742656   3.805653   2.505931   1.488802
     7  S    5.847040   4.810025   4.939453   3.730149   2.820758
     8  C    2.403583   1.479902   2.491819   2.364080   1.515755
     9  C    2.882319   2.453595   3.531356   3.454717   2.560548
    10  C    3.040816   2.457299   3.563618   3.458748   2.540642
    11  C    3.057433   2.463576   1.531060   2.520448   3.461364
    12  C    2.903185   2.459335   1.532253   2.532611   3.449863
    13  H    4.518346   3.330205   2.273874   1.087397   2.148673
    14  H    5.638987   4.394658   4.128817   2.673649   2.140512
    15  H    5.210809   4.129354   4.470925   3.332206   2.158076
    16  H    3.187453   2.737396   3.473249   3.384391   2.752202
    17  H    3.905285   3.412902   4.431937   4.066894   2.928931
    18  H    2.573410   2.654754   3.960224   4.232317   3.472916
    19  H    2.768424   2.674094   4.005546   4.247814   3.465739
    20  H    4.027608   3.418503   4.458702   4.070173   2.912081
    21  H    3.418757   2.734858   3.523577   3.393485   2.727266
    22  H    3.410634   2.726908   2.179467   2.724462   3.400402
    23  H    4.054408   3.417538   2.170984   2.856387   4.030599
    24  H    2.821740   2.710494   2.160264   3.452114   4.274999
    25  H    2.632321   2.690635   2.155303   3.456161   4.254921
    26  H    3.932712   3.412318   2.169619   2.873713   4.027762
    27  H    3.186132   2.729457   2.178902   2.735009   3.377616
    28  S    6.524824   5.432043   4.987282   3.735913   3.566698
    29  O    6.153487   5.230139   4.747710   3.846926   3.902956
    30  O    6.698179   5.496919   4.783459   3.399178   3.530486
    31  C    8.222677   7.158271   6.780769   5.508400   5.219217
    32  H    8.339211   7.369935   7.167246   5.991962   5.557481
    33  H    8.782652   7.727673   7.179547   5.964486   5.893728
    34  H    8.669600   7.543793   7.197426   5.815063   5.427268
                    6          7          8          9         10
     6  C    0.000000
     7  S    1.845163   0.000000
     8  C    2.645369   3.661396   0.000000
     9  C    3.307585   3.539261   1.530309   0.000000
    10  C    3.224960   4.474306   1.532852   2.516004   0.000000
    11  C    4.779029   6.187441   3.570028   4.824350   4.163803
    12  C    4.796426   5.499743   3.530821   4.062903   4.821763
    13  H    2.821990   3.940299   3.410660   4.426365   4.426437
    14  H    1.091126   2.392297   3.522109   4.336929   4.040163
    15  H    1.095593   2.346428   2.839071   3.476821   2.888325
    16  H    3.512621   3.394488   2.176736   1.092752   3.474565
    17  H    3.171902   3.107339   2.175852   1.095268   2.740802
    18  H    4.333809   4.609400   2.146570   1.094146   2.761501
    19  H    4.272278   5.371131   2.156749   2.763178   1.096126
    20  H    3.084827   4.140743   2.181623   2.748913   1.095908
    21  H    3.391643   4.952457   2.180434   3.475923   1.094207
    22  H    4.559791   6.176653   3.521297   4.954600   3.733831
    23  H    5.215714   6.576752   4.441924   5.663925   5.126042
    24  H    5.673029   7.016079   4.045116   5.159461   4.545722
    25  H    5.678018   6.397665   3.993781   4.425317   5.147511
    26  H    5.241569   5.943483   4.413254   5.032133   5.677248
    27  H    4.586087   4.929880   3.459740   3.606983   4.916274
    28  S    3.000796   2.139866   4.767362   4.824627   5.900736
    29  O    3.850791   2.990526   4.842047   4.666038   6.207807
    30  O    2.966509   2.950672   4.977090   5.461747   5.969779
    31  C    4.354536   3.047018   6.359052   6.226046   7.376159
    32  H    4.728684   3.108215   6.498577   6.107467   7.525241
    33  H    5.172576   4.021241   7.088535   7.000286   8.194943
    34  H    4.326569   3.174722   6.630536   6.625263   7.464913
                   11         12         13         14         15
    11  C    0.000000
    12  C    2.521778   0.000000
    13  H    2.956091   2.989350   0.000000
    14  H    4.897544   5.118764   2.570888   0.000000
    15  H    5.311991   5.605305   3.758783   1.773829   0.000000
    16  H    4.930962   3.619005   4.235472   4.450218   3.959575
    17  H    5.694180   5.046796   4.945529   4.259650   3.108242
    18  H    5.117502   4.393845   5.265355   5.357059   4.395810
    19  H    4.507608   5.129643   5.277159   5.119594   3.937519
    20  H    5.147026   5.676731   4.944474   3.955139   2.431579
    21  H    3.747248   4.962085   4.239316   3.954825   3.056607
    22  H    1.096647   3.482166   3.170957   4.631088   4.909978
    23  H    1.097612   2.757907   2.887646   5.129453   5.865876
    24  H    1.094659   2.765968   3.983394   5.900484   6.141801
    25  H    2.767865   1.095149   4.008701   6.081591   6.389132
    26  H    2.747770   1.095994   2.931014   5.352756   6.142545
    27  H    3.478914   1.092699   3.209141   5.016003   5.439193
    28  S    6.185634   5.148605   3.428149   2.894731   3.934948
    29  O    6.074855   4.478404   3.661728   3.972959   4.841133
    30  O    5.686311   5.146009   2.734825   2.358088   3.926253
    31  C    7.966741   6.887483   5.143789   4.165170   5.064644
    32  H    8.467887   7.200171   5.793311   4.769000   5.347234
    33  H    8.313108   7.122094   5.456958   4.872217   5.974712
    34  H    8.283155   7.502991   5.416908   3.994630   4.881626
                   16         17         18         19         20
    16  H    0.000000
    17  H    1.775560   0.000000
    18  H    1.779607   1.780858   0.000000
    19  H    3.774284   3.090970   2.556183   0.000000
    20  H    3.749145   2.517466   3.104339   1.774758   0.000000
    21  H    4.325002   3.747520   3.767307   1.777918   1.780908
    22  H    5.265056   5.693522   5.272331   4.142786   4.670332
    23  H    5.632962   6.510219   6.050985   5.559885   6.047836
    24  H    5.289412   6.114985   5.229023   4.633085   5.608054
    25  H    4.055913   5.489315   4.490983   5.230886   6.088310
    26  H    4.528928   5.955403   5.450945   6.076379   6.510026
    27  H    2.919055   4.534366   4.013235   5.251488   5.633393
    28  S    4.287581   4.777736   5.882062   6.810073   5.861230
    29  O    3.852224   4.836169   5.603951   6.965189   6.336220
    30  O    5.082514   5.520611   6.519563   6.963272   6.021642
    31  C    5.687809   5.954911   7.272596   8.294991   7.147224
    32  H    5.528286   5.741090   7.097541   8.367064   7.230049
    33  H    6.363751   6.841627   8.029806   9.108947   8.058106
    34  H    6.243546   6.248862   7.698246   8.443142   7.130958
                   21         22         23         24         25
    21  H    0.000000
    22  H    3.072234   0.000000
    23  H    4.657221   1.781648   0.000000
    24  H    4.199168   1.780047   1.781453   0.000000
    25  H    5.313282   3.774040   3.118381   2.560593   0.000000
    26  H    5.685486   3.756234   2.528095   3.094913   1.784160
    27  H    5.259090   4.328690   3.755405   3.776583   1.780768
    28  S    6.192376   6.409716   6.233328   7.087317   6.184360
    29  O    6.613759   6.534144   6.112765   6.835247   5.438942
    30  O    5.994796   5.806571   5.559484   6.696323   6.235928
    31  C    7.708718   8.147807   7.975694   8.880722   7.907450
    32  H    7.998102   8.680759   8.577685   9.314293   8.154338
    33  H    8.478458   8.580652   8.190981   9.225157   8.149689
    34  H    7.715493   8.327232   8.298629   9.252067   8.545228
                   26         27         28         29         30
    26  H    0.000000
    27  H    1.775529   0.000000
    28  S    5.215406   4.558753   0.000000
    29  O    4.535621   3.696998   1.478909   0.000000
    30  O    5.017175   4.848506   1.482957   2.562720   0.000000
    31  C    6.907931   6.221162   1.795052   2.655012   2.666251
    32  H    7.337835   6.412863   2.374550   2.866443   3.568106
    33  H    6.988831   6.470586   2.335323   2.844146   2.937923
    34  H    7.531599   6.929899   2.375810   3.562739   2.820715
                   31         32         33         34
    31  C    0.000000
    32  H    1.093276   0.000000
    33  H    1.092760   1.798036   0.000000
    34  H    1.089307   1.810285   1.807827   0.000000
 Stoichiometry    C10H18NO3S2(2)
 Framework group  C1[X(C10H18NO3S2)]
 Deg. of freedom    96
 Full point group                 C1      NOp   1
 Largest Abelian subgroup         C1      NOp   1
 Largest concise Abelian subgroup C1      NOp   1
                         Standard orientation:                         
 ---------------------------------------------------------------------
 Center     Atomic      Atomic             Coordinates (Angstroms)
 Number     Number       Type             X           Y           Z
 ---------------------------------------------------------------------
      1          8           0       -3.666966    0.173104    1.043747
      2          7           0       -2.644857    0.051366    0.303404
      3          6           0       -2.173486   -1.262310   -0.178567
      4          6           0       -0.860649   -0.862430   -0.781845
      5          6           0       -0.592952    0.441195   -0.648661
      6          6           0        0.615660    1.120714   -1.190916
      7         16           0        1.950626    1.447302    0.040276
      8          6           0       -1.699922    1.169613    0.087231
      9          6           0       -1.285169    1.746553    1.442579
     10          6           0       -2.376844    2.246253   -0.768489
     11          6           0       -3.151125   -1.820339   -1.216339
     12          6           0       -2.029164   -2.223695    1.005792
     13          1           0       -0.205541   -1.577895   -1.273146
     14          1           0        1.073054    0.534370   -1.989381
     15          1           0        0.392347    2.120344   -1.579756
     16          1           0       -0.755096    1.001561    2.041008
     17          1           0       -0.632097    2.616162    1.312621
     18          1           0       -2.185958    2.057926    1.979962
     19          1           0       -3.290088    2.583489   -0.264755
     20          1           0       -1.720906    3.113980   -0.901946
     21          1           0       -2.647671    1.853895   -1.753373
     22          1           0       -3.242737   -1.143059   -2.073972
     23          1           0       -2.805285   -2.797344   -1.577736
     24          1           0       -4.138866   -1.944070   -0.760997
     25          1           0       -3.000612   -2.332349    1.499589
     26          1           0       -1.694220   -3.206847    0.655894
     27          1           0       -1.302363   -1.848876    1.730541
     28         16           0        2.751994   -0.535546    0.112026
     29          8           0        2.320126   -1.214148    1.353058
     30          8           0        2.498087   -1.171991   -1.203128
     31          6           0        4.508987   -0.194466    0.249326
     32          1           0        4.668115    0.416453    1.141911
     33          1           0        4.985204   -1.171672    0.360728
     34          1           0        4.832817    0.314029   -0.657953
 ---------------------------------------------------------------------
 Rotational constants (GHZ):           0.7712035           0.2775587           0.2436964
 Leave Link  202 at Mon Jun 17 21:28:05 2019, MaxMem=  8053063680 cpu:               0.0 elap:               0.0
 (Enter /data2/g16/g16/l301.exe)
 General basis read from cards:  (6D, 7F)
 Centers:      13     14     15     16     17     18     19     20     21     22
 Centers:      23     24     25     26     27     32     33     34
 6-31G
 S 1 1.00 0.000000000000
     Exponent=  4.0000000000D-01 Coefficients=  1.0000000000D+00
 P 1 1.00 0.000000000000
     Exponent=  7.5000000000D-01 Coefficients=  1.0000000000D+00
 ****
 Centers:       3      4      5      6      8      9     10     11     12     31
 6-31G
 S 1 1.00 0.000000000000
     Exponent=  8.7000000000D+00 Coefficients=  1.0000000000D+00
 P 1 1.00 0.000000000000
     Exponent=  5.0000000000D-02 Coefficients=  1.0000000000D+00
 D 1 1.00
     Exponent=  8.2000000000D-01 Coefficients=  1.0000000000D+00
 ****
 Centers:       2
 6-31G
 S 1 1.00 0.000000000000
     Exponent=  1.3700000000D+01 Coefficients=  1.0000000000D+00
 P 1 1.00 0.000000000000
     Exponent=  5.3000000000D-02 Coefficients=  1.0000000000D+00
 D 1 1.00 0.000000000000
     Exponent=  1.0150000000D+00 Coefficients=  1.0000000000D+00
 ****
 Centers:       1     29     30
 6-31G
 S 1 1.00
     Exponent=  1.6000000000D+01 Coefficients=  1.0000000000D+00
 P 1 1.00 0.000000000000
     Exponent=  6.5000000000D-02 Coefficients=  1.0000000000D+00
 D 1 1.00 0.000000000000
     Exponent=  1.1900000000D+00 Coefficients=  1.0000000000D+00
 D 1 1.00 0.000000000000
     Exponent=  1.8000000000D-01 Coefficients=  1.0000000000D+00
 ****
 Centers:       7     28
 6-31G
 S 1 1.00 0.000000000000
     Exponent=  7.5000000000D+00 Coefficients=  1.0000000000D+00
 P 1 1.00 0.000000000000
     Exponent=  4.1000000000D-02 Coefficients=  1.0000000000D+00
 D 1 1.00 0.000000000000
     Exponent=  4.7900000000D-01 Coefficients=  1.0000000000D+00
 ****
 Ernie: Thresh=  0.10000D-02 Tol=  0.10000D-05 Strict=F.
 There are   438 symmetry adapted cartesian basis functions of A   symmetry.
 There are   438 symmetry adapted basis functions of A   symmetry.
   438 basis functions,   722 primitive gaussians,   438 cartesian basis functions
    71 alpha electrons       70 beta electrons
       nuclear repulsion energy      1521.1137583467 Hartrees.
 IExCor= 1009 DFT=T Ex+Corr=PBE1PBE ExCW=0 ScaHFX=  0.250000
 ScaDFX=  0.750000  0.750000  1.000000  1.000000 ScalE2=  1.000000  1.000000
 IRadAn=      5 IRanWt=     -1 IRanGd=            0 ICorTp=0 IEmpDi=  4
 NAtoms=   34 NActive=   34 NUniq=   34 SFac= 1.00D+00 NAtFMM=   60 NAOKFM=F Big=F
 Integral buffers will be    131072 words long.
 Raffenetti 2 integral format.
 Two-electron integral symmetry is turned on.
 Leave Link  301 at Mon Jun 17 21:28:05 2019, MaxMem=  8053063680 cpu:               0.0 elap:               0.1
 (Enter /data2/g16/g16/l302.exe)
 NPDir=0 NMtPBC=     1 NCelOv=     1 NCel=       1 NClECP=     1 NCelD=      1
         NCelK=      1 NCelE2=     1 NClLst=     1 CellRange=     0.0.
 One-electron integrals computed using PRISM.
 One-electron integral symmetry used in STVInt
 NBasis=   438 RedAO= T EigKep=  6.65D-05  NBF=   438
 NBsUse=   438 1.00D-06 EigRej= -1.00D+00 NBFU=   438
 Precomputing XC quadrature grid using
 IXCGrd= 4 IRadAn=           5 IRanWt=          -1 IRanGd=           0 AccXCQ= 0.00D+00.
 Generated NRdTot=       0 NPtTot=           0 NUsed=           0 NTot=          32
 NSgBfM=   433   433   433   433   433 MxSgAt=    34 MxSgA2=    34.
 Leave Link  302 at Mon Jun 17 21:28:05 2019, MaxMem=  8053063680 cpu:               0.0 elap:               0.5
 (Enter /data2/g16/g16/l303.exe)
 DipDrv:  MaxL=1.
 Leave Link  303 at Mon Jun 17 21:28:05 2019, MaxMem=  8053063680 cpu:               0.0 elap:               0.1
 (Enter /data2/g16/g16/l401.exe)
 ExpMin= 4.10D-02 ExpMax= 2.19D+04 ExpMxC= 3.30D+03 IAcc=3 IRadAn=         5 AccDes= 0.00D+00
 Harris functional with IExCor= 1009 and IRadAn=       5 diagonalized for initial guess.
 HarFok:  IExCor= 1009 AccDes= 0.00D+00 IRadAn=         5 IDoV= 1 UseB2=F ITyADJ=14
 ICtDFT=  3500011 ScaDFX=  1.000000  1.000000  1.000000  1.000000
 FoFCou: FMM=F IPFlag=           0 FMFlag=      100000 FMFlg1=           0
         NFxFlg=           0 DoJE=T BraDBF=F KetDBF=T FulRan=T
         wScrn=  0.000000 ICntrl=       500 IOpCl=  0 I1Cent=   200000004 NGrid=           0
         NMat0=    1 NMatS0=      1 NMatT0=    0 NMatD0=    1 NMtDS0=    0 NMtDT0=    0
 Petite list used in FoFCou.
 Harris En= -1467.69852715979    
 JPrj=0 DoOrth=F DoCkMO=F.
 Initial guess <Sx>= 0.0000 <Sy>= 0.0000 <Sz>= 0.5000 <S**2>= 0.7500 S= 0.5000
 Leave Link  401 at Mon Jun 17 21:28:07 2019, MaxMem=  8053063680 cpu:               0.0 elap:               1.6
 (Enter /data2/g16/g16/l502.exe)
 Integral symmetry usage will be decided dynamically.
 UHF open shell SCF:
 Using DIIS extrapolation, IDIIS=  1040.
 NGot=  8053063680 LenX=  8052670277 LenY=  8052477992
 Requested convergence on RMS density matrix=1.00D-08 within 128 cycles.
 Requested convergence on MAX density matrix=1.00D-06.
 Requested convergence on             energy=1.00D-06.
 No special actions if energy rises.
 Fock matrices will be formed incrementally for  20 cycles.

 Cycle   1  Pass 1  IDiag  1:
 FoFJK:  IHMeth= 1 ICntrl=       0 DoSepK=F KAlg= 0 I1Cent=           0 FoldK=F
 IRaf= 840000000 NMat=       1 IRICut=       1 DoRegI=T DoRafI=F ISym2E= 0 IDoP0=0 IntGTp=1.
 FoFCou: FMM=F IPFlag=           0 FMFlag=      100000 FMFlg1=           0
         NFxFlg=           0 DoJE=F BraDBF=F KetDBF=F FulRan=T
         wScrn=  0.000000 ICntrl=         0 IOpCl=  1 I1Cent=           0 NGrid=           0
         NMat0=    1 NMatS0=      1 NMatT0=    0 NMatD0=    1 NMtDS0=    0 NMtDT0=    0
 Symmetry not used in FoFCou.
 E= -1466.93567149871    
 DIIS: error= 2.54D-02 at cycle   1 NSaved=   1.
 NSaved= 1 IEnMin= 1 EnMin= -1466.93567149871     IErMin= 1 ErrMin= 2.54D-02
 ErrMax= 2.54D-02  0.00D+00 EMaxC= 1.00D-01 BMatC= 2.97D+00 BMatP= 2.97D+00
 IDIUse=3 WtCom= 7.46D-01 WtEn= 2.54D-01
 Coeff-Com:  0.100D+01
 Coeff-En:   0.100D+01
 Coeff:      0.100D+01
 Gap=     0.226 Goal=   None    Shift=    0.000
 Gap=     0.363 Goal=   None    Shift=    0.000
 GapD=    0.226 DampG=1.000 DampE=0.500 DampFc=0.5000 IDamp=-1.
 Damping current iteration by 5.00D-01
 RMSDP=4.75D-03 MaxDP=4.12D-01              OVMax= 3.12D-01

 Cycle   2  Pass 1  IDiag  1:
 RMSU=  2.37D-03    CP:  9.92D-01
 E= -1467.06227698544     Delta-E=       -0.126605486730 Rises=F Damp=T
 DIIS: error= 1.04D-02 at cycle   2 NSaved=   2.
 NSaved= 2 IEnMin= 2 EnMin= -1467.06227698544     IErMin= 2 ErrMin= 1.04D-02
 ErrMax= 1.04D-02  0.00D+00 EMaxC= 1.00D-01 BMatC= 5.22D-01 BMatP= 2.97D+00
 IDIUse=3 WtCom= 8.96D-01 WtEn= 1.04D-01
 Coeff-Com:  0.226D+00 0.774D+00
 Coeff-En:   0.395D+00 0.605D+00
 Coeff:      0.244D+00 0.756D+00
 Gap=     0.129 Goal=   None    Shift=    0.000
 Gap=     0.185 Goal=   None    Shift=    0.000
 RMSDP=1.68D-03 MaxDP=1.19D-01 DE=-1.27D-01 OVMax= 2.88D-01

 Cycle   3  Pass 1  IDiag  1:
 RMSU=  1.39D-03    CP:  9.82D-01  6.10D-01
 E= -1467.46625131589     Delta-E=       -0.403974330448 Rises=F Damp=F
 DIIS: error= 9.58D-03 at cycle   3 NSaved=   3.
 NSaved= 3 IEnMin= 3 EnMin= -1467.46625131589     IErMin= 3 ErrMin= 9.58D-03
 ErrMax= 9.58D-03  0.00D+00 EMaxC= 1.00D-01 BMatC= 3.54D-01 BMatP= 5.22D-01
 IDIUse=3 WtCom= 9.04D-01 WtEn= 9.58D-02
 Coeff-Com:  0.530D-01 0.446D+00 0.501D+00
 Coeff-En:   0.000D+00 0.000D+00 0.100D+01
 Coeff:      0.479D-01 0.403D+00 0.549D+00
 Gap=     0.145 Goal=   None    Shift=    0.000
 Gap=     0.223 Goal=   None    Shift=    0.000
 RMSDP=9.48D-04 MaxDP=6.55D-02 DE=-4.04D-01 OVMax= 1.09D-01

 Cycle   4  Pass 1  IDiag  1:
 RMSU=  6.27D-04    CP:  9.87D-01  7.40D-01  5.42D-01
 E= -1467.53756154625     Delta-E=       -0.071310230361 Rises=F Damp=F
 DIIS: error= 2.93D-03 at cycle   4 NSaved=   4.
 NSaved= 4 IEnMin= 4 EnMin= -1467.53756154625     IErMin= 4 ErrMin= 2.93D-03
 ErrMax= 2.93D-03  0.00D+00 EMaxC= 1.00D-01 BMatC= 4.69D-02 BMatP= 3.54D-01
 IDIUse=3 WtCom= 9.71D-01 WtEn= 2.93D-02
 Coeff-Com: -0.116D-01 0.659D-01 0.286D+00 0.660D+00
 Coeff-En:   0.000D+00 0.000D+00 0.108D+00 0.892D+00
 Coeff:     -0.112D-01 0.640D-01 0.281D+00 0.667D+00
 Gap=     0.145 Goal=   None    Shift=    0.000
 Gap=     0.202 Goal=   None    Shift=    0.000
 RMSDP=3.20D-04 MaxDP=1.85D-02 DE=-7.13D-02 OVMax= 3.34D-02

 Cycle   5  Pass 1  IDiag  1:
 RMSU=  2.00D-04    CP:  9.86D-01  7.23D-01  6.56D-01  7.00D-01
 E= -1467.54737806245     Delta-E=       -0.009816516192 Rises=F Damp=F
 DIIS: error= 7.85D-04 at cycle   5 NSaved=   5.
 NSaved= 5 IEnMin= 5 EnMin= -1467.54737806245     IErMin= 5 ErrMin= 7.85D-04
 ErrMax= 7.85D-04  0.00D+00 EMaxC= 1.00D-01 BMatC= 3.97D-03 BMatP= 4.69D-02
 IDIUse=3 WtCom= 9.92D-01 WtEn= 7.85D-03
 Coeff-Com: -0.846D-02 0.148D-01 0.130D+00 0.370D+00 0.493D+00
 Coeff-En:   0.000D+00 0.000D+00 0.000D+00 0.000D+00 0.100D+01
 Coeff:     -0.840D-02 0.147D-01 0.129D+00 0.367D+00 0.497D+00
 Gap=     0.145 Goal=   None    Shift=    0.000
 Gap=     0.205 Goal=   None    Shift=    0.000
 RMSDP=1.09D-04 MaxDP=5.50D-03 DE=-9.82D-03 OVMax= 1.25D-02

 Cycle   6  Pass 1  IDiag  1:
 RMSU=  6.90D-05    CP:  9.85D-01  7.25D-01  6.52D-01  7.57D-01  6.23D-01
 E= -1467.54823972486     Delta-E=       -0.000861662417 Rises=F Damp=F
 DIIS: error= 2.37D-04 at cycle   6 NSaved=   6.
 NSaved= 6 IEnMin= 6 EnMin= -1467.54823972486     IErMin= 6 ErrMin= 2.37D-04
 ErrMax= 2.37D-04  0.00D+00 EMaxC= 1.00D-01 BMatC= 4.09D-04 BMatP= 3.97D-03
 IDIUse=3 WtCom= 9.98D-01 WtEn= 2.37D-03
 Coeff-Com: -0.281D-02 0.104D-02 0.364D-01 0.116D+00 0.273D+00 0.576D+00
 Coeff-En:   0.000D+00 0.000D+00 0.000D+00 0.000D+00 0.446D-01 0.955D+00
 Coeff:     -0.281D-02 0.104D-02 0.363D-01 0.116D+00 0.273D+00 0.577D+00
 Gap=     0.147 Goal=   None    Shift=    0.000
 Gap=     0.205 Goal=   None    Shift=    0.000
 RMSDP=3.58D-05 MaxDP=2.16D-03 DE=-8.62D-04 OVMax= 5.20D-03

 Cycle   7  Pass 1  IDiag  1:
 RMSU=  2.55D-05    CP:  9.85D-01  7.22D-01  6.58D-01  7.58D-01  6.70D-01
                    CP:  6.99D-01
 E= -1467.54833463552     Delta-E=       -0.000094910652 Rises=F Damp=F
 DIIS: error= 1.24D-04 at cycle   7 NSaved=   7.
 NSaved= 7 IEnMin= 7 EnMin= -1467.54833463552     IErMin= 7 ErrMin= 1.24D-04
 ErrMax= 1.24D-04  0.00D+00 EMaxC= 1.00D-01 BMatC= 6.80D-05 BMatP= 4.09D-04
 IDIUse=3 WtCom= 9.99D-01 WtEn= 1.24D-03
 Coeff-Com: -0.217D-04-0.246D-02-0.267D-02-0.136D-03 0.601D-01 0.330D+00
 Coeff-Com:  0.616D+00
 Coeff-En:   0.000D+00 0.000D+00 0.000D+00 0.000D+00 0.000D+00 0.700D-01
 Coeff-En:   0.930D+00
 Coeff:     -0.217D-04-0.246D-02-0.267D-02-0.136D-03 0.600D-01 0.329D+00
 Coeff:      0.616D+00
 Gap=     0.148 Goal=   None    Shift=    0.000
 Gap=     0.206 Goal=   None    Shift=    0.000
 RMSDP=1.49D-05 MaxDP=9.15D-04 DE=-9.49D-05 OVMax= 1.16D-03

 Cycle   8  Pass 1  IDiag  1:
 RMSU=  1.04D-05    CP:  9.85D-01  7.23D-01  6.58D-01  7.58D-01  7.04D-01
                    CP:  7.97D-01  8.11D-01
 E= -1467.54835107302     Delta-E=       -0.000016437505 Rises=F Damp=F
 DIIS: error= 3.06D-05 at cycle   8 NSaved=   8.
 NSaved= 8 IEnMin= 8 EnMin= -1467.54835107302     IErMin= 8 ErrMin= 3.06D-05
 ErrMax= 3.06D-05  0.00D+00 EMaxC= 1.00D-01 BMatC= 4.97D-06 BMatP= 6.80D-05
 IDIUse=1 WtCom= 1.00D+00 WtEn= 0.00D+00
 Coeff-Com:  0.418D-03-0.113D-02-0.541D-02-0.145D-01-0.158D-01 0.669D-01
 Coeff-Com:  0.218D+00 0.751D+00
 Coeff:      0.418D-03-0.113D-02-0.541D-02-0.145D-01-0.158D-01 0.669D-01
 Coeff:      0.218D+00 0.751D+00
 Gap=     0.147 Goal=   None    Shift=    0.000
 Gap=     0.205 Goal=   None    Shift=    0.000
 RMSDP=5.06D-06 MaxDP=5.38D-04 DE=-1.64D-05 OVMax= 1.26D-03

 Cycle   9  Pass 1  IDiag  1:
 RMSU=  4.18D-06    CP:  9.85D-01  7.23D-01  6.57D-01  7.61D-01  7.03D-01
                    CP:  8.26D-01  8.49D-01  9.24D-01
 E= -1467.54835257678     Delta-E=       -0.000001503761 Rises=F Damp=F
 DIIS: error= 2.98D-05 at cycle   9 NSaved=   9.
 NSaved= 9 IEnMin= 9 EnMin= -1467.54835257678     IErMin= 9 ErrMin= 2.98D-05
 ErrMax= 2.98D-05  0.00D+00 EMaxC= 1.00D-01 BMatC= 3.14D-06 BMatP= 4.97D-06
 IDIUse=1 WtCom= 1.00D+00 WtEn= 0.00D+00
 Coeff-Com:  0.324D-03-0.337D-03-0.299D-02-0.966D-02-0.259D-01-0.271D-01
 Coeff-Com: -0.100D-01 0.490D+00 0.585D+00
 Coeff:      0.324D-03-0.337D-03-0.299D-02-0.966D-02-0.259D-01-0.271D-01
 Coeff:     -0.100D-01 0.490D+00 0.585D+00
 Gap=     0.148 Goal=   None    Shift=    0.000
 Gap=     0.205 Goal=   None    Shift=    0.000
 RMSDP=3.42D-06 MaxDP=2.42D-04 DE=-1.50D-06 OVMax= 2.76D-04

 Cycle  10  Pass 1  IDiag  1:
 RMSU=  2.31D-06    CP:  9.85D-01  7.23D-01  6.57D-01  7.60D-01  7.08D-01
                    CP:  8.44D-01  8.91D-01  1.06D+00  8.60D-01
 E= -1467.54835328812     Delta-E=       -0.000000711339 Rises=F Damp=F
 DIIS: error= 1.36D-05 at cycle  10 NSaved=  10.
 NSaved=10 IEnMin=10 EnMin= -1467.54835328812     IErMin=10 ErrMin= 1.36D-05
 ErrMax= 1.36D-05  0.00D+00 EMaxC= 1.00D-01 BMatC= 5.26D-07 BMatP= 3.14D-06
 IDIUse=1 WtCom= 1.00D+00 WtEn= 0.00D+00
 Coeff-Com:  0.998D-04 0.960D-04-0.150D-03-0.161D-02-0.121D-01-0.319D-01
 Coeff-Com: -0.720D-01 0.112D+00 0.339D+00 0.667D+00
 Coeff:      0.998D-04 0.960D-04-0.150D-03-0.161D-02-0.121D-01-0.319D-01
 Coeff:     -0.720D-01 0.112D+00 0.339D+00 0.667D+00
 Gap=     0.148 Goal=   None    Shift=    0.000
 Gap=     0.206 Goal=   None    Shift=    0.000
 RMSDP=1.63D-06 MaxDP=1.14D-04 DE=-7.11D-07 OVMax= 3.03D-04

 Cycle  11  Pass 1  IDiag  1:
 RMSU=  9.81D-07    CP:  9.85D-01  7.22D-01  6.57D-01  7.60D-01  7.08D-01
                    CP:  8.51D-01  8.99D-01  1.16D+00  9.83D-01  8.54D-01
 E= -1467.54835344641     Delta-E=       -0.000000158291 Rises=F Damp=F
 DIIS: error= 6.54D-06 at cycle  11 NSaved=  11.
 NSaved=11 IEnMin=11 EnMin= -1467.54835344641     IErMin=11 ErrMin= 6.54D-06
 ErrMax= 6.54D-06  0.00D+00 EMaxC= 1.00D-01 BMatC= 1.07D-07 BMatP= 5.26D-07
 IDIUse=1 WtCom= 1.00D+00 WtEn= 0.00D+00
 Coeff-Com:  0.234D-05 0.794D-04 0.452D-03 0.866D-03-0.208D-02-0.104D-01
 Coeff-Com: -0.370D-01-0.205D-01 0.574D-01 0.362D+00 0.649D+00
 Coeff:      0.234D-05 0.794D-04 0.452D-03 0.866D-03-0.208D-02-0.104D-01
 Coeff:     -0.370D-01-0.205D-01 0.574D-01 0.362D+00 0.649D+00
 Gap=     0.148 Goal=   None    Shift=    0.000
 Gap=     0.206 Goal=   None    Shift=    0.000
 RMSDP=6.53D-07 MaxDP=4.60D-05 DE=-1.58D-07 OVMax= 1.18D-04

 Cycle  12  Pass 1  IDiag  1:
 RMSU=  4.42D-07    CP:  9.85D-01  7.22D-01  6.57D-01  7.60D-01  7.08D-01
                    CP:  8.53D-01  8.97D-01  1.17D+00  1.03D+00  9.97D-01
                    CP:  8.08D-01
 E= -1467.54835347293     Delta-E=       -0.000000026522 Rises=F Damp=F
 DIIS: error= 2.61D-06 at cycle  12 NSaved=  12.
 NSaved=12 IEnMin=12 EnMin= -1467.54835347293     IErMin=12 ErrMin= 2.61D-06
 ErrMax= 2.61D-06  0.00D+00 EMaxC= 1.00D-01 BMatC= 2.80D-08 BMatP= 1.07D-07
 IDIUse=1 WtCom= 1.00D+00 WtEn= 0.00D+00
 Coeff-Com: -0.119D-04 0.247D-04 0.312D-03 0.801D-03 0.601D-03-0.132D-02
 Coeff-Com: -0.123D-01-0.335D-01-0.305D-01 0.112D+00 0.411D+00 0.553D+00
 Coeff:     -0.119D-04 0.247D-04 0.312D-03 0.801D-03 0.601D-03-0.132D-02
 Coeff:     -0.123D-01-0.335D-01-0.305D-01 0.112D+00 0.411D+00 0.553D+00
 Gap=     0.148 Goal=   None    Shift=    0.000
 Gap=     0.206 Goal=   None    Shift=    0.000
 RMSDP=3.08D-07 MaxDP=2.22D-05 DE=-2.65D-08 OVMax= 2.69D-05

 Cycle  13  Pass 1  IDiag  1:
 RMSU=  1.93D-07    CP:  9.85D-01  7.22D-01  6.57D-01  7.60D-01  7.08D-01
                    CP:  8.54D-01  8.97D-01  1.17D+00  1.05D+00  1.06D+00
                    CP:  9.24D-01  8.39D-01
 E= -1467.54835347923     Delta-E=       -0.000000006292 Rises=F Damp=F
 DIIS: error= 9.97D-07 at cycle  13 NSaved=  13.
 NSaved=13 IEnMin=13 EnMin= -1467.54835347923     IErMin=13 ErrMin= 9.97D-07
 ErrMax= 9.97D-07  0.00D+00 EMaxC= 1.00D-01 BMatC= 4.34D-09 BMatP= 2.80D-08
 IDIUse=1 WtCom= 1.00D+00 WtEn= 0.00D+00
 Coeff-Com: -0.382D-05-0.104D-04 0.612D-04 0.208D-03 0.909D-03 0.274D-02
 Coeff-Com:  0.376D-02-0.100D-01-0.341D-01-0.331D-01 0.641D-01 0.311D+00
 Coeff-Com:  0.695D+00
 Coeff:     -0.382D-05-0.104D-04 0.612D-04 0.208D-03 0.909D-03 0.274D-02
 Coeff:      0.376D-02-0.100D-01-0.341D-01-0.331D-01 0.641D-01 0.311D+00
 Coeff:      0.695D+00
 Gap=     0.148 Goal=   None    Shift=    0.000
 Gap=     0.206 Goal=   None    Shift=    0.000
 RMSDP=1.27D-07 MaxDP=1.25D-05 DE=-6.29D-09 OVMax= 2.14D-05

 Cycle  14  Pass 1  IDiag  1:
 RMSU=  1.05D-07    CP:  9.85D-01  7.22D-01  6.57D-01  7.60D-01  7.08D-01
                    CP:  8.54D-01  8.97D-01  1.17D+00  1.05D+00  1.08D+00
                    CP:  9.58D-01  8.64D-01  8.40D-01
 E= -1467.54835348043     Delta-E=       -0.000000001203 Rises=F Damp=F
 DIIS: error= 5.33D-07 at cycle  14 NSaved=  14.
 NSaved=14 IEnMin=14 EnMin= -1467.54835348043     IErMin=14 ErrMin= 5.33D-07
 ErrMax= 5.33D-07  0.00D+00 EMaxC= 1.00D-01 BMatC= 8.84D-10 BMatP= 4.34D-09
 IDIUse=1 WtCom= 1.00D+00 WtEn= 0.00D+00
 Coeff-Com:  0.478D-06-0.118D-04-0.283D-04-0.450D-04 0.345D-03 0.166D-02
 Coeff-Com:  0.415D-02 0.155D-02-0.125D-01-0.398D-01-0.543D-01 0.323D-01
 Coeff-Com:  0.371D+00 0.696D+00
 Coeff:      0.478D-06-0.118D-04-0.283D-04-0.450D-04 0.345D-03 0.166D-02
 Coeff:      0.415D-02 0.155D-02-0.125D-01-0.398D-01-0.543D-01 0.323D-01
 Coeff:      0.371D+00 0.696D+00
 Gap=     0.148 Goal=   None    Shift=    0.000
 Gap=     0.206 Goal=   None    Shift=    0.000
 RMSDP=7.37D-08 MaxDP=4.78D-06 DE=-1.20D-09 OVMax= 6.04D-06

 Cycle  15  Pass 1  IDiag  1:
 RMSU=  3.45D-08    CP:  9.85D-01  7.22D-01  6.57D-01  7.60D-01  7.08D-01
                    CP:  8.54D-01  8.97D-01  1.17D+00  1.06D+00  1.08D+00
                    CP:  9.82D-01  9.46D-01  9.81D-01  7.90D-01
 E= -1467.54835348081     Delta-E=       -0.000000000377 Rises=F Damp=F
 DIIS: error= 1.27D-07 at cycle  15 NSaved=  15.
 NSaved=15 IEnMin=15 EnMin= -1467.54835348081     IErMin=15 ErrMin= 1.27D-07
 ErrMax= 1.27D-07  0.00D+00 EMaxC= 1.00D-01 BMatC= 5.87D-11 BMatP= 8.84D-10
 IDIUse=1 WtCom= 1.00D+00 WtEn= 0.00D+00
 Coeff-Com:  0.693D-06-0.208D-05-0.202D-04-0.478D-04-0.956D-05 0.218D-03
 Coeff-Com:  0.878D-03 0.214D-02 0.270D-03-0.808D-02-0.280D-01-0.350D-01
 Coeff-Com:  0.383D-01 0.225D+00 0.805D+00
 Coeff:      0.693D-06-0.208D-05-0.202D-04-0.478D-04-0.956D-05 0.218D-03
 Coeff:      0.878D-03 0.214D-02 0.270D-03-0.808D-02-0.280D-01-0.350D-01
 Coeff:      0.383D-01 0.225D+00 0.805D+00
 Gap=     0.148 Goal=   None    Shift=    0.000
 Gap=     0.206 Goal=   None    Shift=    0.000
 RMSDP=1.99D-08 MaxDP=1.23D-06 DE=-3.77D-10 OVMax= 1.83D-06

 Cycle  16  Pass 1  IDiag  1:
 RMSU=  1.36D-08    CP:  9.85D-01  7.22D-01  6.57D-01  7.60D-01  7.08D-01
                    CP:  8.54D-01  8.97D-01  1.18D+00  1.06D+00  1.09D+00
                    CP:  9.81D-01  9.54D-01  1.02D+00  8.79D-01  9.02D-01
 E= -1467.54835348081     Delta-E=       -0.000000000001 Rises=F Damp=F
 DIIS: error= 4.39D-08 at cycle  16 NSaved=  16.
 NSaved=16 IEnMin=16 EnMin= -1467.54835348081     IErMin=16 ErrMin= 4.39D-08
 ErrMax= 4.39D-08  0.00D+00 EMaxC= 1.00D-01 BMatC= 1.10D-11 BMatP= 5.87D-11
 IDIUse=1 WtCom= 1.00D+00 WtEn= 0.00D+00
 Coeff-Com:  0.727D-07 0.106D-05-0.414D-05-0.114D-04-0.532D-04-0.147D-03
 Coeff-Com: -0.249D-03 0.636D-03 0.182D-02 0.263D-02-0.334D-02-0.195D-01
 Coeff-Com: -0.342D-01-0.167D-01 0.323D+00 0.746D+00
 Coeff:      0.727D-07 0.106D-05-0.414D-05-0.114D-04-0.532D-04-0.147D-03
 Coeff:     -0.249D-03 0.636D-03 0.182D-02 0.263D-02-0.334D-02-0.195D-01
 Coeff:     -0.342D-01-0.167D-01 0.323D+00 0.746D+00
 Gap=     0.148 Goal=   None    Shift=    0.000
 Gap=     0.206 Goal=   None    Shift=    0.000
 RMSDP=7.94D-09 MaxDP=4.31D-07 DE=-9.09D-13 OVMax= 7.33D-07

 SCF Done:  E(UPBE1PBE) =  -1467.54835348     A.U. after   16 cycles
            NFock= 16  Conv=0.79D-08     -V/T= 2.0052
 <Sx>= 0.0000 <Sy>= 0.0000 <Sz>= 0.5000 <S**2>= 0.7550 S= 0.5025
 <L.S>=  0.00000000000    
 KE= 1.459889624748D+03 PE=-6.497637450139D+03 EE= 2.049085713564D+03
 Annihilation of the first spin contaminant:
 S**2 before annihilation     0.7550,   after     0.7500
 Leave Link  502 at Mon Jun 17 21:30:44 2019, MaxMem=  8053063680 cpu:               0.0 elap:             156.9
 (Enter /data2/g16/g16/l601.exe)
 Copying SCF densities to generalized density rwf, IOpCl= 1 IROHF=0.

 **********************************************************************

            Population analysis using the SCF Density.

 **********************************************************************

 Orbital symmetries:
 Alpha Orbitals:
       Occupied  (A) (A) (A) (A) (A) (A) (A) (A) (A) (A) (A) (A)
                 (A) (A) (A) (A) (A) (A) (A) (A) (A) (A) (A) (A)
                 (A) (A) (A) (A) (A) (A) (A) (A) (A) (A) (A) (A)
                 (A) (A) (A) (A) (A) (A) (A) (A) (A) (A) (A) (A)
                 (A) (A) (A) (A) (A) (A) (A) (A) (A) (A) (A) (A)
                 (A) (A) (A) (A) (A) (A) (A) (A) (A) (A) (A)
       Virtual   (A) (A) (A) (A) (A) (A) (A) (A) (A) (A) (A) (A)
                 (A) (A) (A) (A) (A) (A) (A) (A) (A) (A) (A) (A)
                 (A) (A) (A) (A) (A) (A) (A) (A) (A) (A) (A) (A)
                 (A) (A) (A) (A) (A) (A) (A) (A) (A) (A) (A) (A)
                 (A) (A) (A) (A) (A) (A) (A) (A) (A) (A) (A) (A)
                 (A) (A) (A) (A) (A) (A) (A) (A) (A) (A) (A) (A)
                 (A) (A) (A) (A) (A) (A) (A) (A) (A) (A) (A) (A)
                 (A) (A) (A) (A) (A) (A) (A) (A) (A) (A) (A) (A)
                 (A) (A) (A) (A) (A) (A) (A) (A) (A) (A) (A) (A)
                 (A) (A) (A) (A) (A) (A) (A) (A) (A) (A) (A) (A)
                 (A) (A) (A) (A) (A) (A) (A) (A) (A) (A) (A) (A)
                 (A) (A) (A) (A) (A) (A) (A) (A) (A) (A) (A) (A)
                 (A) (A) (A) (A) (A) (A) (A) (A) (A) (A) (A) (A)
                 (A) (A) (A) (A) (A) (A) (A) (A) (A) (A) (A) (A)
                 (A) (A) (A) (A) (A) (A) (A) (A) (A) (A) (A) (A)
                 (A) (A) (A) (A) (A) (A) (A) (A) (A) (A) (A) (A)
                 (A) (A) (A) (A) (A) (A) (A) (A) (A) (A) (A) (A)
                 (A) (A) (A) (A) (A) (A) (A) (A) (A) (A) (A) (A)
                 (A) (A) (A) (A) (A) (A) (A) (A) (A) (A) (A) (A)
                 (A) (A) (A) (A) (A) (A) (A) (A) (A) (A) (A) (A)
                 (A) (A) (A) (A) (A) (A) (A) (A) (A) (A) (A) (A)
                 (A) (A) (A) (A) (A) (A) (A) (A) (A) (A) (A) (A)
                 (A) (A) (A) (A) (A) (A) (A) (A) (A) (A) (A) (A)
                 (A) (A) (A) (A) (A) (A) (A) (A) (A) (A) (A) (A)
                 (A) (A) (A) (A) (A) (A) (A) (A) (A) (A) (A) (A)
                 (A) (A) (A) (A) (A) (A) (A) (A) (A) (A) (A) (A)
                 (A) (A) (A) (A) (A) (A) (A) (A) (A) (A) (A) (A)
                 (A) (A) (A) (A) (A) (A) (A) (A) (A) (A) (A) (A)
                 (A) (A) (A) (A) (A) (A) (A) (A) (A) (A) (A) (A)
                 (A) (A) (A) (A) (A) (A) (A) (A) (A) (A) (A) (A)
                 (A) (A) (A) (A) (A) (A) (A)
 Beta  Orbitals:
       Occupied  (A) (A) (A) (A) (A) (A) (A) (A) (A) (A) (A) (A)
                 (A) (A) (A) (A) (A) (A) (A) (A) (A) (A) (A) (A)
                 (A) (A) (A) (A) (A) (A) (A) (A) (A) (A) (A) (A)
                 (A) (A) (A) (A) (A) (A) (A) (A) (A) (A) (A) (A)
                 (A) (A) (A) (A) (A) (A) (A) (A) (A) (A) (A) (A)
                 (A) (A) (A) (A) (A) (A) (A) (A) (A) (A)
       Virtual   (A) (A) (A) (A) (A) (A) (A) (A) (A) (A) (A) (A)
                 (A) (A) (A) (A) (A) (A) (A) (A) (A) (A) (A) (A)
                 (A) (A) (A) (A) (A) (A) (A) (A) (A) (A) (A) (A)
                 (A) (A) (A) (A) (A) (A) (A) (A) (A) (A) (A) (A)
                 (A) (A) (A) (A) (A) (A) (A) (A) (A) (A) (A) (A)
                 (A) (A) (A) (A) (A) (A) (A) (A) (A) (A) (A) (A)
                 (A) (A) (A) (A) (A) (A) (A) (A) (A) (A) (A) (A)
                 (A) (A) (A) (A) (A) (A) (A) (A) (A) (A) (A) (A)
                 (A) (A) (A) (A) (A) (A) (A) (A) (A) (A) (A) (A)
                 (A) (A) (A) (A) (A) (A) (A) (A) (A) (A) (A) (A)
                 (A) (A) (A) (A) (A) (A) (A) (A) (A) (A) (A) (A)
                 (A) (A) (A) (A) (A) (A) (A) (A) (A) (A) (A) (A)
                 (A) (A) (A) (A) (A) (A) (A) (A) (A) (A) (A) (A)
                 (A) (A) (A) (A) (A) (A) (A) (A) (A) (A) (A) (A)
                 (A) (A) (A) (A) (A) (A) (A) (A) (A) (A) (A) (A)
                 (A) (A) (A) (A) (A) (A) (A) (A) (A) (A) (A) (A)
                 (A) (A) (A) (A) (A) (A) (A) (A) (A) (A) (A) (A)
                 (A) (A) (A) (A) (A) (A) (A) (A) (A) (A) (A) (A)
                 (A) (A) (A) (A) (A) (A) (A) (A) (A) (A) (A) (A)
                 (A) (A) (A) (A) (A) (A) (A) (A) (A) (A) (A) (A)
                 (A) (A) (A) (A) (A) (A) (A) (A) (A) (A) (A) (A)
                 (A) (A) (A) (A) (A) (A) (A) (A) (A) (A) (A) (A)
                 (A) (A) (A) (A) (A) (A) (A) (A) (A) (A) (A) (A)
                 (A) (A) (A) (A) (A) (A) (A) (A) (A) (A) (A) (A)
                 (A) (A) (A) (A) (A) (A) (A) (A) (A) (A) (A) (A)
                 (A) (A) (A) (A) (A) (A) (A) (A) (A) (A) (A) (A)
                 (A) (A) (A) (A) (A) (A) (A) (A) (A) (A) (A) (A)
                 (A) (A) (A) (A) (A) (A) (A) (A) (A) (A) (A) (A)
                 (A) (A) (A) (A) (A) (A) (A) (A) (A) (A) (A) (A)
                 (A) (A) (A) (A) (A) (A) (A) (A) (A) (A) (A) (A)
                 (A) (A) (A) (A) (A) (A) (A) (A)
 The electronic state is 2-A.
 Alpha  occ. eigenvalues --  -89.28801 -89.08190 -19.24750 -19.24220 -19.22645
 Alpha  occ. eigenvalues --  -14.48517 -10.29730 -10.29700 -10.29124 -10.28719
 Alpha  occ. eigenvalues --  -10.26125 -10.24855 -10.23331 -10.22863 -10.22558
 Alpha  occ. eigenvalues --  -10.22310  -8.22120  -8.04433  -6.15843  -6.15798
 Alpha  occ. eigenvalues --   -6.15684  -5.98273  -5.97897  -5.97173  -1.14723
 Alpha  occ. eigenvalues --   -1.13432  -1.04483  -0.93283  -0.85923  -0.84026
 Alpha  occ. eigenvalues --   -0.82242  -0.77237  -0.74915  -0.72102  -0.71232
 Alpha  occ. eigenvalues --   -0.70588  -0.64469  -0.62454  -0.58965  -0.56424
 Alpha  occ. eigenvalues --   -0.53159  -0.51830  -0.51306  -0.50749  -0.50177
 Alpha  occ. eigenvalues --   -0.48512  -0.47402  -0.46359  -0.46175  -0.45124
 Alpha  occ. eigenvalues --   -0.44649  -0.43951  -0.42778  -0.42431  -0.41661
 Alpha  occ. eigenvalues --   -0.40502  -0.40095  -0.39031  -0.38859  -0.36499
 Alpha  occ. eigenvalues --   -0.36359  -0.36189  -0.35748  -0.35656  -0.34535
 Alpha  occ. eigenvalues --   -0.33588  -0.31777  -0.28314  -0.27234  -0.26895
 Alpha  occ. eigenvalues --   -0.20215
 Alpha virt. eigenvalues --   -0.05451  -0.02448   0.00472   0.01073   0.02634
 Alpha virt. eigenvalues --    0.03408   0.03688   0.04588   0.04820   0.04989
 Alpha virt. eigenvalues --    0.05445   0.05802   0.06159   0.06289   0.06851
 Alpha virt. eigenvalues --    0.07844   0.08238   0.08377   0.09040   0.09318
 Alpha virt. eigenvalues --    0.09409   0.09643   0.10366   0.10757   0.11017
 Alpha virt. eigenvalues --    0.11377   0.11821   0.12678   0.13020   0.13696
 Alpha virt. eigenvalues --    0.14031   0.14408   0.14704   0.15010   0.15560
 Alpha virt. eigenvalues --    0.15979   0.16658   0.16764   0.16939   0.17752
 Alpha virt. eigenvalues --    0.18372   0.18716   0.19254   0.19435   0.19646
 Alpha virt. eigenvalues --    0.20013   0.20845   0.21240   0.22048   0.22535
 Alpha virt. eigenvalues --    0.23183   0.23231   0.23963   0.24664   0.25440
 Alpha virt. eigenvalues --    0.26128   0.26327   0.26752   0.27126   0.27725
 Alpha virt. eigenvalues --    0.27936   0.28385   0.29087   0.29217   0.29793
 Alpha virt. eigenvalues --    0.30401   0.30622   0.31473   0.31732   0.31777
 Alpha virt. eigenvalues --    0.32224   0.32958   0.33510   0.34564   0.34984
 Alpha virt. eigenvalues --    0.35577   0.36808   0.37721   0.38146   0.40450
 Alpha virt. eigenvalues --    0.41717   0.41934   0.42199   0.43525   0.44200
 Alpha virt. eigenvalues --    0.46096   0.47091   0.47575   0.48113   0.50213
 Alpha virt. eigenvalues --    0.50687   0.50912   0.51806   0.51948   0.52887
 Alpha virt. eigenvalues --    0.53697   0.54055   0.54621   0.55466   0.56160
 Alpha virt. eigenvalues --    0.57125   0.58128   0.58242   0.59852   0.60556
 Alpha virt. eigenvalues --    0.60973   0.61910   0.62667   0.63153   0.63744
 Alpha virt. eigenvalues --    0.64211   0.64872   0.65330   0.65938   0.66672
 Alpha virt. eigenvalues --    0.67780   0.68134   0.68720   0.70084   0.71050
 Alpha virt. eigenvalues --    0.72085   0.72847   0.73164   0.73987   0.74222
 Alpha virt. eigenvalues --    0.74756   0.75882   0.76457   0.77203   0.78351
 Alpha virt. eigenvalues --    0.79028   0.79774   0.80792   0.81873   0.82176
 Alpha virt. eigenvalues --    0.82574   0.83222   0.83807   0.84878   0.85656
 Alpha virt. eigenvalues --    0.86063   0.87078   0.87941   0.88372   0.88689
 Alpha virt. eigenvalues --    0.89214   0.89829   0.90420   0.90951   0.91177
 Alpha virt. eigenvalues --    0.91526   0.92959   0.94173   0.94822   0.95437
 Alpha virt. eigenvalues --    0.96398   0.97374   0.97918   0.98105   0.99620
 Alpha virt. eigenvalues --    0.99735   1.01902   1.02224   1.03455   1.04531
 Alpha virt. eigenvalues --    1.04615   1.07715   1.08611   1.09147   1.11939
 Alpha virt. eigenvalues --    1.12467   1.14646   1.14988   1.15778   1.16695
 Alpha virt. eigenvalues --    1.18702   1.20211   1.21630   1.22101   1.23580
 Alpha virt. eigenvalues --    1.25458   1.29155   1.30265   1.31687   1.31738
 Alpha virt. eigenvalues --    1.36528   1.37807   1.39601   1.40143   1.41447
 Alpha virt. eigenvalues --    1.44331   1.45450   1.45886   1.48017   1.48782
 Alpha virt. eigenvalues --    1.49127   1.50456   1.51590   1.53034   1.56023
 Alpha virt. eigenvalues --    1.57605   1.59526   1.62500   1.63124   1.63270
 Alpha virt. eigenvalues --    1.65478   1.65848   1.67055   1.68147   1.68451
 Alpha virt. eigenvalues --    1.69497   1.71011   1.72202   1.73205   1.75015
 Alpha virt. eigenvalues --    1.75658   1.76352   1.77682   1.78712   1.79212
 Alpha virt. eigenvalues --    1.79746   1.80566   1.80974   1.81818   1.82563
 Alpha virt. eigenvalues --    1.83829   1.84382   1.85117   1.85887   1.87108
 Alpha virt. eigenvalues --    1.88109   1.89721   1.90944   1.93026   1.94200
 Alpha virt. eigenvalues --    1.95335   1.95874   1.97929   1.98230   1.98825
 Alpha virt. eigenvalues --    1.99478   2.02297   2.03114   2.04309   2.05610
 Alpha virt. eigenvalues --    2.06405   2.07235   2.10433   2.12449   2.13441
 Alpha virt. eigenvalues --    2.14834   2.16281   2.16779   2.23591   2.26017
 Alpha virt. eigenvalues --    2.27912   2.29089   2.31791   2.32929   2.34304
 Alpha virt. eigenvalues --    2.36791   2.38755   2.39412   2.40032   2.41063
 Alpha virt. eigenvalues --    2.42665   2.44898   2.47353   2.48687   2.49731
 Alpha virt. eigenvalues --    2.53693   2.54578   2.54830   2.58133   2.58919
 Alpha virt. eigenvalues --    2.60548   2.63939   2.65277   2.66044   2.67383
 Alpha virt. eigenvalues --    2.70673   2.75182   2.75626   2.77500   2.80750
 Alpha virt. eigenvalues --    2.82458   2.82700   2.83233   2.83362   2.84210
 Alpha virt. eigenvalues --    2.84436   2.85357   2.86576   2.86995   2.88102
 Alpha virt. eigenvalues --    2.88493   2.89608   2.90959   2.93193   2.93529
 Alpha virt. eigenvalues --    2.94613   2.95575   2.96846   2.97832   2.98391
 Alpha virt. eigenvalues --    2.99240   3.02576   3.03422   3.03888   3.06730
 Alpha virt. eigenvalues --    3.08074   3.15654   3.18146   3.19622   3.20392
 Alpha virt. eigenvalues --    3.26175   3.28221   3.29721   3.31231   3.31451
 Alpha virt. eigenvalues --    3.34411   3.35846   3.37399   3.38364   3.41450
 Alpha virt. eigenvalues --    3.41906   3.42951   3.45189   3.48169   3.49817
 Alpha virt. eigenvalues --    3.53773   3.56363   3.59661   3.63557   3.64676
 Alpha virt. eigenvalues --    3.76482   3.94106   4.47165   4.57428   4.62175
 Alpha virt. eigenvalues --    4.64295   4.72438   4.73924   4.74758   4.86521
 Alpha virt. eigenvalues --    4.91278   5.03067   5.44500   5.81791   5.84484
 Alpha virt. eigenvalues --    6.07910  22.21682  22.63384  58.49223  58.49257
 Alpha virt. eigenvalues --   58.50383  58.50652  58.50882  58.55577  58.56039
 Alpha virt. eigenvalues --   58.56364  58.56639  58.56827  95.61729 106.32258
 Alpha virt. eigenvalues --  106.33255 106.39078
  Beta  occ. eigenvalues --  -89.28801 -89.08190 -19.24750 -19.24220 -19.21211
  Beta  occ. eigenvalues --  -14.47331 -10.29732 -10.29700 -10.29187 -10.28782
  Beta  occ. eigenvalues --  -10.26124 -10.24852 -10.23279 -10.22811 -10.22511
  Beta  occ. eigenvalues --  -10.22262  -8.22120  -8.04432  -6.15843  -6.15798
  Beta  occ. eigenvalues --   -6.15684  -5.98273  -5.97897  -5.97173  -1.14723
  Beta  occ. eigenvalues --   -1.10799  -1.04483  -0.92326  -0.85731  -0.83923
  Beta  occ. eigenvalues --   -0.82110  -0.77038  -0.73847  -0.71851  -0.71102
  Beta  occ. eigenvalues --   -0.70135  -0.64417  -0.62326  -0.58586  -0.55916
  Beta  occ. eigenvalues --   -0.53068  -0.51824  -0.51017  -0.50414  -0.48339
  Beta  occ. eigenvalues --   -0.47517  -0.47173  -0.46342  -0.46110  -0.44976
  Beta  occ. eigenvalues --   -0.44255  -0.43795  -0.42501  -0.41646  -0.41191
  Beta  occ. eigenvalues --   -0.40201  -0.40034  -0.38700  -0.37662  -0.36319
  Beta  occ. eigenvalues --   -0.36130  -0.35723  -0.35695  -0.34507  -0.33584
  Beta  occ. eigenvalues --   -0.32679  -0.31772  -0.28234  -0.26718  -0.26006
  Beta virt. eigenvalues --   -0.05452  -0.03873  -0.02412   0.00485   0.01079
  Beta virt. eigenvalues --    0.02656   0.03436   0.03726   0.04629   0.04911
  Beta virt. eigenvalues --    0.05020   0.05470   0.05844   0.06187   0.06314
  Beta virt. eigenvalues --    0.06917   0.07863   0.08297   0.08448   0.09067
  Beta virt. eigenvalues --    0.09359   0.09533   0.09702   0.10411   0.10805
  Beta virt. eigenvalues --    0.11038   0.11437   0.11917   0.12793   0.13107
  Beta virt. eigenvalues --    0.13754   0.14091   0.14447   0.14790   0.15068
  Beta virt. eigenvalues --    0.15894   0.16069   0.16705   0.16984   0.17214
  Beta virt. eigenvalues --    0.17888   0.18421   0.18815   0.19376   0.19610
  Beta virt. eigenvalues --    0.19774   0.20223   0.20996   0.21357   0.22144
  Beta virt. eigenvalues --    0.22709   0.23243   0.23314   0.24118   0.24966
  Beta virt. eigenvalues --    0.25584   0.26235   0.26416   0.26861   0.27231
  Beta virt. eigenvalues --    0.27772   0.28067   0.28526   0.29133   0.29374
  Beta virt. eigenvalues --    0.30165   0.30580   0.30997   0.31602   0.31850
  Beta virt. eigenvalues --    0.32094   0.32522   0.33047   0.33589   0.34634
  Beta virt. eigenvalues --    0.35098   0.35780   0.36844   0.37798   0.38235
  Beta virt. eigenvalues --    0.40489   0.41801   0.41987   0.42626   0.43560
  Beta virt. eigenvalues --    0.44359   0.46166   0.47220   0.47609   0.48152
  Beta virt. eigenvalues --    0.50319   0.50830   0.51016   0.51916   0.52029
  Beta virt. eigenvalues --    0.52930   0.53808   0.54158   0.54788   0.55531
  Beta virt. eigenvalues --    0.56238   0.57218   0.58223   0.58402   0.59952
  Beta virt. eigenvalues --    0.60670   0.61104   0.61940   0.62706   0.63324
  Beta virt. eigenvalues --    0.63900   0.64284   0.64928   0.65498   0.66090
  Beta virt. eigenvalues --    0.66742   0.67833   0.68446   0.68865   0.70325
  Beta virt. eigenvalues --    0.71298   0.72147   0.72958   0.73223   0.74067
  Beta virt. eigenvalues --    0.74454   0.74792   0.76005   0.76511   0.77281
  Beta virt. eigenvalues --    0.78557   0.79118   0.79940   0.80912   0.82068
  Beta virt. eigenvalues --    0.82251   0.82672   0.83290   0.83871   0.84942
  Beta virt. eigenvalues --    0.85734   0.86148   0.87187   0.87973   0.88437
  Beta virt. eigenvalues --    0.88727   0.89251   0.89892   0.90535   0.91041
  Beta virt. eigenvalues --    0.91244   0.91716   0.93108   0.94384   0.94916
  Beta virt. eigenvalues --    0.95504   0.96552   0.97523   0.98026   0.99372
  Beta virt. eigenvalues --    0.99683   0.99897   1.02114   1.02292   1.03583
  Beta virt. eigenvalues --    1.04610   1.04812   1.07770   1.08652   1.09324
  Beta virt. eigenvalues --    1.12338   1.12639   1.14670   1.15050   1.15946
  Beta virt. eigenvalues --    1.16978   1.19014   1.20564   1.22112   1.23219
  Beta virt. eigenvalues --    1.23839   1.25912   1.29640   1.30846   1.31821
  Beta virt. eigenvalues --    1.32418   1.36901   1.38136   1.39659   1.40224
  Beta virt. eigenvalues --    1.41510   1.44365   1.45645   1.46143   1.48189
  Beta virt. eigenvalues --    1.48903   1.49221   1.50511   1.51695   1.53065
  Beta virt. eigenvalues --    1.56202   1.57692   1.59640   1.62534   1.63145
  Beta virt. eigenvalues --    1.63296   1.65814   1.66045   1.67638   1.68322
  Beta virt. eigenvalues --    1.68469   1.69769   1.71071   1.72249   1.73324
  Beta virt. eigenvalues --    1.75103   1.75723   1.76478   1.77716   1.78767
  Beta virt. eigenvalues --    1.79258   1.79822   1.80652   1.81018   1.81882
  Beta virt. eigenvalues --    1.82713   1.83967   1.84455   1.85213   1.86041
  Beta virt. eigenvalues --    1.87245   1.88219   1.89830   1.91181   1.93179
  Beta virt. eigenvalues --    1.94308   1.95346   1.95900   1.98134   1.98398
  Beta virt. eigenvalues --    1.99092   1.99744   2.02604   2.03409   2.04501
  Beta virt. eigenvalues --    2.05967   2.06850   2.07661   2.10784   2.12875
  Beta virt. eigenvalues --    2.13580   2.15145   2.16327   2.17178   2.24412
  Beta virt. eigenvalues --    2.26069   2.28034   2.30237   2.31930   2.33037
  Beta virt. eigenvalues --    2.34428   2.36882   2.38760   2.39415   2.40214
  Beta virt. eigenvalues --    2.41381   2.42928   2.45004   2.47523   2.49200
  Beta virt. eigenvalues --    2.49891   2.53902   2.54913   2.55792   2.58663
  Beta virt. eigenvalues --    2.59029   2.60609   2.64033   2.65384   2.66116
  Beta virt. eigenvalues --    2.68199   2.70839   2.75330   2.76016   2.77696
  Beta virt. eigenvalues --    2.80975   2.82472   2.82731   2.83264   2.84216
  Beta virt. eigenvalues --    2.84361   2.85411   2.85937   2.86971   2.87322
  Beta virt. eigenvalues --    2.88304   2.89692   2.89816   2.91225   2.93244
  Beta virt. eigenvalues --    2.94653   2.95402   2.95874   2.96966   2.98072
  Beta virt. eigenvalues --    2.98447   2.99675   3.02783   3.03915   3.04351
  Beta virt. eigenvalues --    3.06829   3.08186   3.16040   3.19123   3.19831
  Beta virt. eigenvalues --    3.23756   3.26178   3.28222   3.30211   3.31273
  Beta virt. eigenvalues --    3.31534   3.34465   3.35856   3.37443   3.38381
  Beta virt. eigenvalues --    3.41563   3.42014   3.43003   3.45230   3.48293
  Beta virt. eigenvalues --    3.49931   3.53947   3.56400   3.59705   3.63666
  Beta virt. eigenvalues --    3.64694   3.76501   3.95811   4.47237   4.57490
  Beta virt. eigenvalues --    4.62175   4.64414   4.72513   4.74026   4.74865
  Beta virt. eigenvalues --    4.86649   4.91317   5.03072   5.46380   5.81801
  Beta virt. eigenvalues --    5.84485   6.10422  22.21682  22.63384  58.49222
  Beta virt. eigenvalues --   58.49256  58.50365  58.50616  58.50831  58.55624
  Beta virt. eigenvalues --   58.56086  58.56405  58.56680  58.56830  95.62655
  Beta virt. eigenvalues --  106.32259 106.33255 106.40221
          Condensed to atoms (all electrons):
               1          2          3          4          5          6
     1  O    8.665079  -0.011902  -0.086201  -0.001607   0.036761  -0.003843
     2  N   -0.011902   7.341604   0.090855  -0.065487  -0.020916   0.015868
     3  C   -0.086201   0.090855   5.432846   0.244525  -0.096677   0.018175
     4  C   -0.001607  -0.065487   0.244525   5.179583   0.606119  -0.034753
     5  C    0.036761  -0.020916  -0.096677   0.606119   5.387448   0.193992
     6  C   -0.003843   0.015868   0.018175  -0.034753   0.193992   5.228559
     7  S   -0.000756   0.004729   0.000372  -0.002407  -0.127473   0.259158
     8  C   -0.072268   0.069204  -0.140632  -0.052288   0.219421  -0.074355
     9  C   -0.016733  -0.089673   0.006631  -0.003323  -0.063060   0.008275
    10  C   -0.005834  -0.084303   0.017591  -0.009518  -0.081071   0.005558
    11  C   -0.001855  -0.102540   0.313048  -0.052693  -0.011548  -0.002286
    12  C   -0.008468  -0.092138   0.312392  -0.074110   0.000321  -0.001718
    13  H   -0.000756   0.004688  -0.036287   0.406242  -0.050304  -0.001490
    14  H    0.000032  -0.001425   0.002397   0.022340  -0.081328   0.420109
    15  H    0.000144  -0.003590  -0.000039   0.005689  -0.063650   0.407714
    16  H   -0.001600   0.013826  -0.004467   0.004396   0.003173  -0.000899
    17  H   -0.000413   0.006966  -0.000338   0.000978  -0.006956   0.002169
    18  H    0.007453  -0.025422   0.001847  -0.000865   0.008234  -0.000953
    19  H    0.008005  -0.024325  -0.001389  -0.001317   0.018326  -0.001301
    20  H   -0.000674   0.004593  -0.000777   0.001485  -0.002480   0.001849
    21  H   -0.000084   0.006515   0.002077   0.000247  -0.005366   0.003953
    22  H    0.000050   0.004397  -0.053037  -0.007188   0.008272  -0.000691
    23  H   -0.000882   0.007122  -0.046741   0.000954   0.001756  -0.000047
    24  H    0.007364  -0.023820  -0.034037   0.015634  -0.002666   0.000067
    25  H    0.007456  -0.030676  -0.025011   0.015142  -0.001164   0.000016
    26  H   -0.000204   0.009365  -0.047595  -0.002898   0.000071  -0.000029
    27  H   -0.000589   0.010685  -0.061568  -0.003281   0.005235  -0.000500
    28  S   -0.000244   0.000471  -0.001445  -0.031385  -0.003972  -0.004547
    29  O    0.000317   0.002928  -0.002211   0.031838   0.008412   0.004681
    30  O    0.000176  -0.001998  -0.004624   0.024844   0.015924  -0.024517
    31  C    0.000014  -0.000035  -0.000581   0.003474   0.003768  -0.000337
    32  H   -0.000000  -0.000005   0.000031  -0.000147  -0.000376   0.000139
    33  H   -0.000000   0.000003   0.000021   0.000015   0.000040   0.000205
    34  H   -0.000000   0.000001  -0.000026  -0.000538   0.000174  -0.000422
               7          8          9         10         11         12
     1  O   -0.000756  -0.072268  -0.016733  -0.005834  -0.001855  -0.008468
     2  N    0.004729   0.069204  -0.089673  -0.084303  -0.102540  -0.092138
     3  C    0.000372  -0.140632   0.006631   0.017591   0.313048   0.312392
     4  C   -0.002407  -0.052288  -0.003323  -0.009518  -0.052693  -0.074110
     5  C   -0.127473   0.219421  -0.063060  -0.081071  -0.011548   0.000321
     6  C    0.259158  -0.074355   0.008275   0.005558  -0.002286  -0.001718
     7  S   15.865230  -0.004168   0.003874  -0.000501  -0.000232   0.000891
     8  C   -0.004168   5.422809   0.321579   0.325518   0.018494   0.017726
     9  C    0.003874   0.321579   5.008008  -0.084586  -0.005421   0.004753
    10  C   -0.000501   0.325518  -0.084586   5.034244   0.004954  -0.005892
    11  C   -0.000232   0.018494  -0.005421   0.004954   5.034255  -0.081061
    12  C    0.000891   0.017726   0.004753  -0.005892  -0.081061   5.019235
    13  H    0.000008   0.012136  -0.000898  -0.001504  -0.000539   0.002634
    14  H   -0.042051   0.002694   0.000051  -0.001857  -0.000122  -0.000035
    15  H   -0.041299   0.007743  -0.000885   0.005737   0.000312  -0.000068
    16  H    0.000972  -0.064352   0.412669   0.009175   0.000177  -0.001527
    17  H    0.001042  -0.034601   0.399986  -0.004061   0.000138  -0.000130
    18  H   -0.000001  -0.032420   0.412813  -0.003885  -0.000093   0.000067
    19  H    0.000011  -0.040614  -0.002926   0.415068  -0.000340   0.000124
    20  H   -0.000115  -0.038779  -0.003891   0.401224  -0.000073   0.000159
    21  H   -0.001111  -0.056205   0.008335   0.410094  -0.000837  -0.000104
    22  H    0.000013  -0.001184   0.000063  -0.001014   0.410310   0.008299
    23  H    0.000006  -0.001245   0.000174  -0.000078   0.405491  -0.002915
    24  H   -0.000012   0.000450   0.000010  -0.000323   0.411393  -0.003970
    25  H   -0.000033  -0.001969   0.000229  -0.000065  -0.004432   0.410353
    26  H   -0.000004  -0.000695  -0.000135   0.000157  -0.002149   0.406663
    27  H   -0.000051  -0.000273  -0.001641   0.000099   0.009100   0.413063
    28  S    0.310842   0.001803  -0.003188  -0.000204  -0.000942   0.002013
    29  O   -0.075207  -0.006263  -0.000978   0.000068   0.000318  -0.005991
    30  O   -0.083715  -0.002352   0.000693  -0.000066   0.001158   0.000398
    31  C   -0.052012  -0.000876   0.000177   0.000045   0.000060  -0.000183
    32  H   -0.000585   0.000119  -0.000062  -0.000002  -0.000001  -0.000006
    33  H    0.001482  -0.000037  -0.000002   0.000000  -0.000000  -0.000005
    34  H    0.002676   0.000116   0.000004  -0.000001  -0.000000   0.000008
              13         14         15         16         17         18
     1  O   -0.000756   0.000032   0.000144  -0.001600  -0.000413   0.007453
     2  N    0.004688  -0.001425  -0.003590   0.013826   0.006966  -0.025422
     3  C   -0.036287   0.002397  -0.000039  -0.004467  -0.000338   0.001847
     4  C    0.406242   0.022340   0.005689   0.004396   0.000978  -0.000865
     5  C   -0.050304  -0.081328  -0.063650   0.003173  -0.006956   0.008234
     6  C   -0.001490   0.420109   0.407714  -0.000899   0.002169  -0.000953
     7  S    0.000008  -0.042051  -0.041299   0.000972   0.001042  -0.000001
     8  C    0.012136   0.002694   0.007743  -0.064352  -0.034601  -0.032420
     9  C   -0.000898   0.000051  -0.000885   0.412669   0.399986   0.412813
    10  C   -0.001504  -0.001857   0.005737   0.009175  -0.004061  -0.003885
    11  C   -0.000539  -0.000122   0.000312   0.000177   0.000138  -0.000093
    12  C    0.002634  -0.000035  -0.000068  -0.001527  -0.000130   0.000067
    13  H    0.508447   0.002119  -0.000026  -0.000042  -0.000001   0.000004
    14  H    0.002119   0.489236  -0.014211  -0.000033  -0.000017   0.000001
    15  H   -0.000026  -0.014211   0.530586   0.000087  -0.000046   0.000010
    16  H   -0.000042  -0.000033   0.000087   0.537174  -0.019164  -0.015007
    17  H   -0.000001  -0.000017  -0.000046  -0.019164   0.566298  -0.021049
    18  H    0.000004   0.000001   0.000010  -0.015007  -0.021049   0.521475
    19  H    0.000005   0.000003  -0.000033  -0.000006  -0.000251   0.001939
    20  H    0.000002   0.000021  -0.000035   0.000100   0.001232  -0.000160
    21  H   -0.000015  -0.000013  -0.000257  -0.000140   0.000071   0.000030
    22  H    0.000062   0.000004   0.000002  -0.000001   0.000000   0.000000
    23  H    0.000523   0.000001   0.000000  -0.000000  -0.000000   0.000000
    24  H    0.000019   0.000000  -0.000000  -0.000001   0.000000  -0.000002
    25  H   -0.000043  -0.000000   0.000000  -0.000005  -0.000000  -0.000009
    26  H    0.000174  -0.000001   0.000000   0.000008  -0.000000  -0.000000
    27  H   -0.000108  -0.000002   0.000000   0.000314   0.000010  -0.000014
    28  S    0.003548  -0.014386   0.002860  -0.000845  -0.000992   0.000384
    29  O   -0.000350   0.001049  -0.000796  -0.000043   0.000186  -0.000013
    30  O   -0.001060   0.011557  -0.001253   0.000061   0.000019  -0.000010
    31  C   -0.000118   0.000457  -0.000045   0.000032   0.000049  -0.000003
    32  H    0.000000   0.000005  -0.000001  -0.000000  -0.000000   0.000000
    33  H    0.000000  -0.000011   0.000000   0.000000   0.000000  -0.000000
    34  H    0.000001   0.000024  -0.000000   0.000000  -0.000000   0.000000
              19         20         21         22         23         24
     1  O    0.008005  -0.000674  -0.000084   0.000050  -0.000882   0.007364
     2  N   -0.024325   0.004593   0.006515   0.004397   0.007122  -0.023820
     3  C   -0.001389  -0.000777   0.002077  -0.053037  -0.046741  -0.034037
     4  C   -0.001317   0.001485   0.000247  -0.007188   0.000954   0.015634
[...]
     7  S   -0.019575   0.000356
     8  C    0.205765  -0.034907
     9  C    0.069572   0.022982
    10  C    0.029934   0.020211
    11  C    0.039422   0.020240
    12  C    0.062129   0.023646
    28  S    0.890291  -0.000082
    29  O   -0.511882  -0.000001
    30  O   -0.568700  -0.000025
    31  C    0.149936  -0.000010
 Electronic spatial extent (au):  <R**2>=           4765.6880
 Charge=             -0.0000 electrons
 Dipole moment (field-independent basis, Debye):
    X=              4.1599    Y=              1.8397    Z=             -2.2578  Tot=              5.0781
 Quadrupole moment (field-independent basis, Debye-Ang):
   XX=           -107.1152   YY=           -109.0330   ZZ=           -116.4193
   XY=              5.2729   XZ=              7.1481   YZ=             -0.6325
 Traceless Quadrupole moment (field-independent basis, Debye-Ang):
   XX=              3.7406   YY=              1.8228   ZZ=             -5.5635
   XY=              5.2729   XZ=              7.1481   YZ=             -0.6325
 Octapole moment (field-independent basis, Debye-Ang**2):
  XXX=            184.2378  YYY=             -3.7699  ZZZ=              0.1628  XYY=            -13.8563
  XXY=             -8.5375  XXZ=            -10.0190  XZZ=              0.9437  YZZ=              5.9588
  YYZ=             -2.4610  XYZ=              0.5129
 Hexadecapole moment (field-independent basis, Debye-Ang**3):
 XXXX=          -3936.0880 YYYY=          -1372.1079 ZZZZ=           -689.4160 XXXY=            -21.4724
 XXXZ=            128.1440 YYYX=            -17.0426 YYYZ=              0.9837 ZZZX=            -10.3133
 ZZZY=             -2.5491 XXYY=           -931.4271 XXZZ=           -860.5094 YYZZ=           -352.0117
 XXYZ=             -4.0682 YYXZ=             -4.2991 ZZXY=             14.7058
 N-N= 1.521113758347D+03 E-N=-6.497637432710D+03  KE= 1.459889624748D+03
                          Isotropic Fermi Contact Couplings
        Atom                 a.u.       MegaHertz       Gauss      10(-4) cm-1
     1  O(17)              0.08652     -52.45034     -18.71558     -17.49555
     2  N(14)              0.10879      35.15041      12.54254      11.72491
     3  C(13)             -0.01423     -15.99359      -5.70691      -5.33489
     4  C(13)             -0.00010      -0.10955      -0.03909      -0.03654
     5  C(13)             -0.00025      -0.28379      -0.10126      -0.09466
     6  C(13)             -0.00070      -0.78596      -0.28045      -0.26217
     7  S(33)             -0.00002      -0.00769      -0.00274      -0.00256
     8  C(13)             -0.01446     -16.25709      -5.80093      -5.42278
     9  C(13)              0.01198      13.46699       4.80536       4.49211
    10  C(13)              0.01796      20.18804       7.20359       6.73401
    11  C(13)              0.01770      19.89874       7.10037       6.63751
    12  C(13)              0.01237      13.90995       4.96341       4.63986
    13  H(1)              -0.00029      -1.31831      -0.47041      -0.43974
    14  H(1)               0.00002       0.11072       0.03951       0.03693
    15  H(1)               0.00001       0.03255       0.01161       0.01086
    16  H(1)              -0.00039      -1.76442      -0.62959      -0.58855
    17  H(1)               0.00024       1.09147       0.38946       0.36408
    18  H(1)              -0.00052      -2.32938      -0.83118      -0.77700
    19  H(1)              -0.00048      -2.16465      -0.77240      -0.72205
    20  H(1)               0.00039       1.74463       0.62253       0.58195
    21  H(1)              -0.00033      -1.46354      -0.52223      -0.48819
    22  H(1)              -0.00033      -1.48136      -0.52859      -0.49413
    23  H(1)               0.00037       1.63509       0.58344       0.54541
    24  H(1)              -0.00047      -2.08194      -0.74289      -0.69446
    25  H(1)              -0.00051      -2.26731      -0.80903      -0.75629
    26  H(1)               0.00028       1.23925       0.44219       0.41337
    27  H(1)              -0.00040      -1.79775      -0.64148      -0.59966
    28  S(33)              0.00000       0.00063       0.00022       0.00021
    29  O(17)             -0.00001       0.00368       0.00131       0.00123
    30  O(17)             -0.00003       0.01883       0.00672       0.00628
    31  C(13)             -0.00001      -0.00651      -0.00232      -0.00217
    32  H(1)               0.00000       0.00111       0.00039       0.00037
    33  H(1)              -0.00000      -0.00004      -0.00002      -0.00001
    34  H(1)              -0.00000      -0.00058      -0.00021      -0.00019
 --------------------------------------------------------
       Center         ----  Spin Dipole Couplings  ----
                      3XX-RR        3YY-RR        3ZZ-RR
 --------------------------------------------------------
     1   Atom       -0.156432     -0.885855      1.042287
     2   Atom       -0.121098     -0.552105      0.673203
     3   Atom       -0.005436      0.012121     -0.006685
     4   Atom        0.004739     -0.005109      0.000370
     5   Atom        0.008417     -0.007184     -0.001233
     6   Atom        0.002312     -0.001453     -0.000859
     7   Atom        0.002189     -0.001245     -0.000944
     8   Atom        0.003542      0.004972     -0.008515
     9   Atom       -0.010948     -0.001057      0.012005
    10   Atom       -0.010169      0.019853     -0.009684
    11   Atom       -0.001290      0.002669     -0.001379
    12   Atom       -0.016867      0.015347      0.001520
    13   Atom        0.001795     -0.001048     -0.000747
    14   Atom        0.001461     -0.001209     -0.000252
    15   Atom        0.001228     -0.000683     -0.000545
    16   Atom        0.003378     -0.003389      0.000010
    17   Atom        0.000439      0.001906     -0.002346
    18   Atom       -0.002122      0.004442     -0.002320
    19   Atom       -0.004853      0.009688     -0.004835
    20   Atom       -0.001241      0.003882     -0.002641
    21   Atom       -0.005627      0.000545      0.005082
    22   Atom       -0.005820     -0.002141      0.007960
    23   Atom       -0.002720      0.003615     -0.000895
    24   Atom       -0.001769      0.003853     -0.002084
    25   Atom       -0.004925      0.010066     -0.005141
    26   Atom       -0.002841      0.005384     -0.002543
    27   Atom       -0.000442      0.001854     -0.001412
    28   Atom        0.001420     -0.000724     -0.000696
    29   Atom        0.001464     -0.000687     -0.000778
    30   Atom        0.001034     -0.000588     -0.000446
    31   Atom        0.000661     -0.000329     -0.000332
    32   Atom        0.000620     -0.000311     -0.000309
    33   Atom        0.000519     -0.000249     -0.000270
    34   Atom        0.000552     -0.000285     -0.000266
 --------------------------------------------------------
                        XY            XZ            YZ
 --------------------------------------------------------
     1   Atom       -0.318051      1.387047     -0.496339
     2   Atom       -0.184231      0.787887     -0.296526
     3   Atom       -0.008905     -0.001073      0.006639
     4   Atom       -0.006269     -0.007378      0.002993
     5   Atom        0.002654     -0.007563     -0.001243
     6   Atom        0.001004     -0.001807     -0.000412
     7   Atom        0.000853      0.000463      0.000162
     8   Atom        0.013003     -0.000797     -0.002573
     9   Atom        0.010143      0.007633      0.021356
    10   Atom       -0.010559      0.003964     -0.017574
    11   Atom        0.015097      0.013807      0.018700
    12   Atom       -0.003476     -0.001486     -0.022889
    13   Atom       -0.002819     -0.002835      0.001635
    14   Atom        0.000294     -0.001635     -0.000189
    15   Atom        0.001543     -0.001640     -0.000912
    16   Atom        0.003572      0.007029      0.002029
    17   Atom        0.005269      0.000573      0.001157
    18   Atom        0.006029      0.002208      0.007953
    19   Atom       -0.001692     -0.001129     -0.005171
    20   Atom        0.003302     -0.001016     -0.003066
    21   Atom        0.001156      0.000127     -0.007476
    22   Atom        0.000501      0.002710      0.005403
    23   Atom       -0.000992     -0.000134      0.004613
    24   Atom        0.005475      0.001957      0.006933
    25   Atom       -0.001459     -0.001341     -0.005282
    26   Atom       -0.003430     -0.000674      0.000322
    27   Atom       -0.005877      0.004766     -0.004377
    28   Atom       -0.000214     -0.000166      0.000025
    29   Atom       -0.000556      0.000341     -0.000082
    30   Atom       -0.000410     -0.000558      0.000135
    31   Atom       -0.000043     -0.000045      0.000003
    32   Atom        0.000035      0.000069      0.000003
    33   Atom       -0.000125     -0.000021      0.000003
    34   Atom        0.000020     -0.000131     -0.000002
 --------------------------------------------------------


 ---------------------------------------------------------------------------------
              Anisotropic Spin Dipole Couplings in Principal Axis System
 ---------------------------------------------------------------------------------

       Atom             a.u.   MegaHertz   Gauss  10(-4) cm-1        Axes

              Baa    -1.0688    77.335    27.595    25.796  0.8206 -0.1000 -0.5627
     1 O(17)  Bbb    -1.0027    72.552    25.888    24.201  0.1919  0.9756  0.1066
              Bcc     2.0714  -149.887   -53.483   -49.997  0.5383 -0.1955  0.8198
 
              Baa    -0.6207   -23.940    -8.543    -7.986  0.1805  0.9769  0.1140
     2 N(14)  Bbb    -0.6061   -23.378    -8.342    -7.798  0.8382 -0.0922 -0.5376
              Bcc     1.2269    47.318    16.884    15.784  0.5147 -0.1926  0.8355
 
              Baa    -0.0104    -1.391    -0.496    -0.464  0.6660  0.4413 -0.6015
     3 C(13)  Bbb    -0.0072    -0.972    -0.347    -0.324  0.6542  0.0419  0.7552
              Bcc     0.0176     2.364     0.843     0.788 -0.3584  0.8964  0.2607
 
              Baa    -0.0082    -1.103    -0.393    -0.368  0.4845  0.8673  0.1140
     4 C(13)  Bbb    -0.0046    -0.621    -0.222    -0.207  0.4254 -0.3475  0.8356
              Bcc     0.0128     1.724     0.615     0.575  0.7643 -0.3564 -0.5374
 
              Baa    -0.0076    -1.023    -0.365    -0.341 -0.1646  0.9864 -0.0030
     5 C(13)  Bbb    -0.0054    -0.720    -0.257    -0.240  0.4675  0.0807  0.8803
              Bcc     0.0130     1.743     0.622     0.581  0.8685  0.1435 -0.4744
 
              Baa    -0.0017    -0.232    -0.083    -0.077 -0.4115  0.7659 -0.4940
     6 C(13)  Bbb    -0.0016    -0.221    -0.079    -0.074  0.1989  0.6044  0.7714
              Bcc     0.0034     0.453     0.162     0.151  0.8895  0.2192 -0.4010
 
              Baa    -0.0015    -0.060    -0.021    -0.020 -0.2126  0.9702 -0.1161
     7 S(33)  Bbb    -0.0010    -0.041    -0.015    -0.014 -0.1641  0.0817  0.9830
              Bcc     0.0025     0.101     0.036     0.034  0.9633  0.2280  0.1419
 
              Baa    -0.0099    -1.333    -0.476    -0.445 -0.4736  0.5340  0.7004
     8 C(13)  Bbb    -0.0076    -1.015    -0.362    -0.339  0.5580 -0.4334  0.7077
              Bcc     0.0175     2.349     0.838     0.784  0.6814  0.7260 -0.0927
 
              Baa    -0.0193    -2.596    -0.926    -0.866 -0.5607  0.7415 -0.3686
     9 C(13)  Bbb    -0.0120    -1.609    -0.574    -0.537  0.7799  0.3233 -0.5359
              Bcc     0.0313     4.204     1.500     1.402  0.2782  0.5879  0.7596
 
              Baa    -0.0180    -2.418    -0.863    -0.807  0.1671  0.4530  0.8757
    10 C(13)  Bbb    -0.0131    -1.756    -0.627    -0.586  0.9502  0.1629 -0.2656
              Bcc     0.0311     4.174     1.489     1.392 -0.2629  0.8765 -0.4032
 
              Baa    -0.0182    -2.438    -0.870    -0.813 -0.0331 -0.6541  0.7557
    11 C(13)  Bbb    -0.0138    -1.858    -0.663    -0.620  0.8515 -0.4143 -0.3214
              Bcc     0.0320     4.297     1.533     1.433  0.5233  0.6328  0.5707
 
              Baa    -0.0196    -2.624    -0.936    -0.875  0.7801  0.3956  0.4847
    12 C(13)  Bbb    -0.0129    -1.726    -0.616    -0.576 -0.6244  0.4443  0.6424
              Bcc     0.0324     4.350     1.552     1.451 -0.0388  0.8038 -0.5936
 
              Baa    -0.0028    -1.498    -0.534    -0.500  0.6114  0.7527  0.2442
    13 H(1)   Bbb    -0.0025    -1.330    -0.475    -0.444  0.2468 -0.4745  0.8449
              Bcc     0.0053     2.828     1.009     0.943  0.7518 -0.4564 -0.4759
 
              Baa    -0.0013    -0.667    -0.238    -0.223  0.2998  0.7195  0.6265
    14 H(1)   Bbb    -0.0012    -0.658    -0.235    -0.219 -0.4299  0.6881 -0.5845
              Bcc     0.0025     1.325     0.473     0.442  0.8516  0.0941 -0.5156
 
              Baa    -0.0015    -0.823    -0.294    -0.275 -0.5069  0.8607 -0.0467
    15 H(1)   Bbb    -0.0015    -0.811    -0.289    -0.271  0.3770  0.2701  0.8860
              Bcc     0.0031     1.634     0.583     0.545  0.7752  0.4315 -0.4614
 
              Baa    -0.0058    -3.108    -1.109    -1.037  0.6480 -0.4223 -0.6338
    16 H(1)   Bbb    -0.0043    -2.304    -0.822    -0.769  0.0642  0.8595 -0.5070
              Bcc     0.0101     5.412     1.931     1.805  0.7589  0.2879  0.5841
 
              Baa    -0.0042    -2.246    -0.801    -0.749  0.7264 -0.6613  0.1872
    17 H(1)   Bbb    -0.0025    -1.311    -0.468    -0.437 -0.2312  0.0213  0.9727
              Bcc     0.0067     3.557     1.269     1.186  0.6472  0.7498  0.1374
 
              Baa    -0.0082    -4.350    -1.552    -1.451  0.3573 -0.6149  0.7030
    18 H(1)   Bbb    -0.0043    -2.270    -0.810    -0.757  0.8453 -0.1073 -0.5234
              Bcc     0.0124     6.621     2.362     2.208  0.3973  0.7813  0.4814
 
              Baa    -0.0075    -3.992    -1.425    -1.332  0.5298  0.2920  0.7963
    19 H(1)   Bbb    -0.0040    -2.112    -0.754    -0.704  0.8445 -0.0950 -0.5271
              Bcc     0.0114     6.104     2.178     2.036 -0.0783  0.9517 -0.2969
 
              Baa    -0.0039    -2.087    -0.745    -0.696 -0.1967  0.4300  0.8812
    20 H(1)   Bbb    -0.0027    -1.440    -0.514    -0.480  0.8943 -0.2898  0.3410
              Bcc     0.0066     3.527     1.258     1.176  0.4020  0.8550 -0.3275
 
              Baa    -0.0064    -3.403    -1.214    -1.135  0.8082 -0.4891 -0.3280
    21 H(1)   Bbb    -0.0043    -2.277    -0.813    -0.760  0.5878  0.6358  0.5003
              Bcc     0.0106     5.681     2.027     1.895 -0.0362 -0.5971  0.8013
 
              Baa    -0.0064    -3.439    -1.227    -1.147  0.9426  0.2130 -0.2572
    22 H(1)   Bbb    -0.0043    -2.292    -0.818    -0.765 -0.2930  0.8971 -0.3307
              Bcc     0.0107     5.731     2.045     1.912  0.1603  0.3870  0.9080
 
              Baa    -0.0039    -2.094    -0.747    -0.699 -0.3432 -0.5226  0.7804
    23 H(1)   Bbb    -0.0027    -1.419    -0.506    -0.473  0.9341 -0.1034  0.3416
              Bcc     0.0066     3.513     1.254     1.172 -0.0978  0.8463  0.5237
 
              Baa    -0.0072    -3.851    -1.374    -1.284  0.3720 -0.6179  0.6927
    24 H(1)   Bbb    -0.0037    -1.994    -0.712    -0.665  0.8336 -0.1060 -0.5422
              Bcc     0.0110     5.845     2.086     1.950  0.4084  0.7791  0.4756
 
              Baa    -0.0078    -4.176    -1.490    -1.393  0.5152  0.2810  0.8097
    25 H(1)   Bbb    -0.0040    -2.109    -0.753    -0.703  0.8550 -0.1026 -0.5085
              Bcc     0.0118     6.285     2.243     2.097 -0.0598  0.9542 -0.2931
 
              Baa    -0.0042    -2.266    -0.809    -0.756  0.9024  0.3114  0.2977
    26 H(1)   Bbb    -0.0024    -1.286    -0.459    -0.429 -0.2611 -0.1543  0.9529
              Bcc     0.0067     3.552     1.268     1.185 -0.3427  0.9377  0.0579
 
              Baa    -0.0059    -3.160    -1.128    -1.054  0.7825  0.2777 -0.5573
    27 H(1)   Bbb    -0.0043    -2.301    -0.821    -0.768  0.2322  0.7003  0.6750
              Bcc     0.0102     5.461     1.949     1.822 -0.5777  0.6576 -0.4835
 
              Baa    -0.0007    -0.031    -0.011    -0.010  0.0779  0.9698 -0.2312
    28 S(33)  Bbb    -0.0007    -0.029    -0.010    -0.010  0.0982  0.2233  0.9698
              Bcc     0.0015     0.060     0.021     0.020  0.9921 -0.0983 -0.0778
 
              Baa    -0.0008     0.060     0.021     0.020 -0.1721 -0.1096  0.9790
    29 O(17)  Bbb    -0.0008     0.059     0.021     0.020  0.2131  0.9661  0.1456
              Bcc     0.0017    -0.119    -0.043    -0.040  0.9618 -0.2337  0.1429
 
              Baa    -0.0007     0.050     0.018     0.017  0.2192  0.9749 -0.0399
    30 O(17)  Bbb    -0.0006     0.046     0.016     0.015  0.3106 -0.0309  0.9501
              Bcc     0.0013    -0.095    -0.034    -0.032  0.9249 -0.2207 -0.3095
 
              Baa    -0.0003    -0.045    -0.016    -0.015  0.0362 -0.1923  0.9807
    31 C(13)  Bbb    -0.0003    -0.044    -0.016    -0.015  0.0510  0.9804  0.1903
              Bcc     0.0007     0.089     0.032     0.030  0.9980 -0.0431 -0.0453
 
              Baa    -0.0003    -0.167    -0.060    -0.056 -0.0665 -0.1571  0.9853
    32 H(1)   Bbb    -0.0003    -0.167    -0.059    -0.056 -0.0480  0.9869  0.1541
              Bcc     0.0006     0.334     0.119     0.111  0.9966  0.0370  0.0732
 
              Baa    -0.0003    -0.144    -0.051    -0.048  0.0226 -0.0257  0.9994
    33 H(1)   Bbb    -0.0003    -0.144    -0.051    -0.048  0.1574  0.9873  0.0218
              Bcc     0.0005     0.288     0.103     0.096  0.9873 -0.1569 -0.0264
 
              Baa    -0.0003    -0.153    -0.055    -0.051  0.1464 -0.4785  0.8658
    34 H(1)   Bbb    -0.0003    -0.152    -0.054    -0.051  0.0533  0.8778  0.4761
              Bcc     0.0006     0.305     0.109     0.102  0.9878  0.0236 -0.1540
 

 ---------------------------------------------------------------------------------

 No NMR shielding tensors so no spin-rotation constants.
 Leave Link  601 at Mon Jun 17 21:30:44 2019, MaxMem=  8053063680 cpu:               0.0 elap:               0.3
 (Enter /data2/g16/g16/l9999.exe)
 1\1\GINC-CU04\SP\UPBE1PBE\Gen\C10H18N1O3S2(2)\ROOT\17-Jun-2019\0\\#p g
 en 6d pbe1pbe\\start preoptimized\\0,2\O,0,-3.664582,0.165449,1.052701
 \N,0,-2.644131,0.045269,0.309821\C,0,-2.171033,-1.267829,-0.172032\C,0
 ,-0.860683,-0.865592,-0.779139\C,0,-0.595604,0.438774,-0.647988\C,0,0.
 610045,1.120476,-1.194088\S,0,1.947467,1.451361,0.033285\C,0,-1.702306
 ,1.165435,0.090041\C,0,-1.285336,1.74471,1.443711\C,0,-2.383899,2.2396
 54,-0.765014\C,0,-3.150101,-1.829144,-1.20668\C,0,-2.021442,-2.227664,
 1.012931\H,0,-0.205233,-1.580074,-1.271413\H,0,1.066689,0.534349,-1.99
 3142\H,0,0.383448,2.119195,-1.583368\H,0,-0.752015,1.00154,2.041519\H,
 0,-0.634583,2.615665,1.311161\H,0,-2.185428,2.054591,1.983122\H,0,-3.2
 96592,2.575335,-0.259246\H,0,-1.730285,3.10873,-0.901069\H,0,-2.656398
 ,1.845668,-1.748786\H,0,-3.245485,-1.152958,-2.064764\H,0,-2.802984,-2
 .805733,-1.567976\H,0,-4.136369,-1.954648,-0.748638\H,0,-2.991351,-2.3
 38014,1.50937\H,0,-1.685177,-3.210413,0.663168\H,0,-1.293609,-1.85045,
 1.735399\S,0,2.753523,-0.529588,0.104976\O,0,2.326432,-1.20789,1.34782
 4\O,0,2.497639,-1.167962,-1.208859\C,0,4.510088,-0.18438,0.237346\H,0,
 4.670152,0.427818,1.128887\H,0,4.988813,-1.160387,0.348506\H,0,4.83039
 8,0.323914,-0.671295\\Version=AM64L-G16RevB.01\State=2-A\HF=-1467.5483
 535\S2=0.755004\S2-1=0.\S2A=0.750017\RMSD=7.938e-09\Dipole=1.6326814,0
 .726576,-0.8932812\Quadrupole=2.7908785,1.3720957,-4.1629743,3.9277535
 ,5.2934385,-0.4741042\PG=C01 [X(C10H18N1O3S2)]\\@


 ABSOLUTISM, OBSOLETISM -- IF IT WORKS, IT'S OUT OF DATE

                          -- STAFFORD BEER
 Elapsed time:       0 days  0 hours  2 minutes 40.0 seconds.
 File lengths (MBytes):  RWF=    181 Int=      0 D2E=      0 Chk=     15 Scr=      1
 Normal termination of Gaussian 16 at Mon Jun 17 21:30:45 2019.
