 Entering Gaussian System, Link 0=g16
 AtFile(1): /home/malgo/Basis_sets/n07d_pbe0.gbs
            -H 0
             6-31G
             S   1 1.00       0.000000000000
                  0.4000000000D+00  0.10000000D+01
             P   1 1.00       0.000000000000
                  0.7500000000D+00  0.10000000D+01
             ****
             -He 0
             6-31+G**
             ****
             -Li 0
             6-31+G**
             ****
             -Be 0
             6-31+G**
             ****
             -B 0
             6-31G
             S   1 1.00       0.000000000000
                  0.7000000000D+01  0.1000000000D+01
             P   1 1.00       0.000000000000
                  0.3500000000D-01  0.1000000000D+01
             D   1 1.00
                  0.3430000000D+00  0.1000000000D+01
             ****
             -C 0
             6-31G
             S   1 1.00       0.000000000000
                  0.8700000000D+01  0.1000000000D+01
             P   1 1.00       0.000000000000
                  0.5000000000D-01  0.1000000000D+01
             D   1 1.00
                  0.8200000000D+00  0.1000000000D+01
             ****
             -N 0
             6-31G
             S   1 1.00       0.000000000000
                  0.1370000000D+02  0.1000000000D+01
             P   1 1.00       0.000000000000
                  0.5300000000D-01  0.1000000000D+01
             D   1 1.00       0.000000000000
                  0.1015000000D+01  0.1000000000D+01
             ****
             -O 0
             6-31G
             S   1 1.00
                  0.1600000000D+02  0.1000000000D+01
             P   1 1.00       0.000000000000
                  0.6500000000D-01  0.1000000000D+01
             D   1 1.00        0.000000000000
                  0.1190000000D+01  0.1000000000D+01
             D   1 1.00        0.000000000000
                  0.1800000000D+00  0.1000000000D+01
             ****
             -F 0
             6-31G
             S   1 1.00
                  0.1770000000D+02  0.1000000000D+01
             P   1 1.00       0.000000000000
                  0.8300000000D-01  0.1000000000D+01
             D   1 1.00       0.000000000000
                  1.3700000000D+00  0.1000000000D+01
             D   1 1.00       0.000000000000
                  0.2300000000D+00  0.1000000000D+01
             ****
             -Ne 0
             6-31+G**
             ****
             -Na 0
             6-31+G**
             ****
             -Mg 0
             6-31+G**
             ****
             -Al 0
             6-31G
             S   1 1.00      0.000000000000
                  0.3100000000D+01  0.1000000000D+01
             P   1 1.00      0.000000000000
                  0.1500000000D-01  0.1000000000D+01
             D   1 1.00      0.000000000000
                  0.1890000000D+00  0.1000000000D+01
             ****
             -Si 0
             6-31G
             S   1 1.00      0.000000000000
                  0.5000000000D+01  0.1000000000D+01
             P   1 1.00       0.000000000000
                  0.3300000000D-01  0.1000000000D+01
             D   1 1.0        0.000000000000
                  0.2750000000D+00  0.1000000000D+01
             ****
             -P  0
             6-31G
             S   1 1.00       0.000000000000
                  0.6300000000D+01  0.1000000000D+01
             P   1 1.00       0.000000000000
                  0.3500000000D-01  0.1000000000D+01
             D   1 1.00       0.000000000000
                  0.3730000000D+00  0.1000000000D+01
             ****
             -S  0
             6-31G
             S   1  1.00      0.000000000000
                  0.7500000000D+01  0.1000000000D+01
             P   1 1.00       0.000000000000
                  0.4100000000D-01  0.1000000000D+01
             D   1 1.00       0.000000000000
                  0.4790000000D+00  0.1000000000D+01
             ****
            -Cl 0
             6-31G
             S   1 1.00       0.000000000000
                  0.8500000000D+01  0.1000000000D+01
             P   1 1.00       0.000000000000
                  0.4800000000D-01  0.1000000000D+01
             D   1 1.00       0.000000000000
                  0.6000000000D+00  0.1000000000D+01
             D   1 1.00       0.000000000000
                  0.1960000000D+00  0.1000000000D+01
             ****
            -Br 0
             S   3 1.00       0.000000000000
                  0.4721881000D+01  0.1749732514D+00
                  0.2257555000D+01 -0.7074172290D+00
                  0.3896080000D+00  0.1258999543D+01
             S   1 1.00       0.000000000000
                  0.1471340000D+00  0.1000000000D+01
             P   3 1.00       0.000000000000
                  0.1896942000D+01 -0.2464576731D+00
                  0.9108990000D+00  0.3623179892D+00
                  0.3168550000D+00  0.8338469725D+00
             P   1 1.00       0.000000000000
                  0.1095030000D+00  0.1000000000D+01
             P   1 1.00       0.000000000000
                  0.3609700000D-01  0.1000000000D+01
             D   1 1.00
                  0.4750000000D+00  0.1000000000D+01
             D   1 1.00
                  0.1280000000D+00  0.1000000000D+01
             ****
            -I   0
             S   3 1.00       0.000000000000
                  0.2122765000D+01  0.2063429899D+01
                  0.1770481000D+01 -0.2869526473D+01
                  0.3130840000D+00  0.1404747074D+01
             S   1 1.00       0.000000000000
                  0.1320000000D+00  0.1000000000D+01
             P   3 1.00       0.000000000000
                  0.2432887000D+01  0.7732753148D+00
                  0.2137249000D+01 -0.1020833156D+01
                  0.3145460000D+00  0.1095666871D+01
             P   1 1.00       0.000000000000
                  0.1049450000D+00  0.1000000000D+01
             P   1 1.00       0.000000000000
                  0.3264100000D-01  0.1000000000D+01
             D   1 1.00
                  0.300000000          1.00000000
             D   1 1.00
                  0.090000000          1.00000000
             ****
             -Zn 0
             SP   6 1.00       0.000000000000
                  0.6936492000D+02 -0.4440098182D-02 -0.7689261805D-02
                  0.2362082000D+02  0.7505253308D-01 -0.2997981924D-01
                  0.1018471000D+02  0.2533111104D+00  0.7082410821D-01
                  0.4334082000D+01 -0.2881897118D+00  0.4046140897D+00
                  0.1810918000D+01 -0.7267052298D+00  0.4882324876D+00
                  0.7148410000D+00 -0.2133439088D+00  0.1751969956D+00
             SP   3 1.00       0.000000000000
                  0.2823842000D+01  0.4898545031D-01 -0.1586762981D+00
                  0.1039543000D+01  0.2592794075D+00  0.8379326898D-01
                  0.1432640000D+00 -0.1115711463D+01  0.9840546881D+00
             SP   1 1.00       0.000000000000
                  0.4929600000D-01  0.1000000000D+01  0.1000000000D+01
             S    1 1.00       0.000000000000
                  0.1620000000D+00  0.1000000000D+01
             D    3 1.00       0.000000000000
                  0.3370764000D+02  0.9262647815D-01
                  0.9061106000D+01  0.4002979920D+00
                  0.2738383000D+01  0.6896607863D+00
             D    1 1.00
                  0.2440000000D+01  0.1000000000D+01
             D    1 1.00       0.000000000000
                  0.7302940000D+00  0.1000000000D+01
             D    1 1.00       0.000000000000
                  0.1620000000D+00  0.1000000000D+01
            ****
 Initial command:
 /data2/g16/g16/l1.exe "/tmp/Gau-17951.inp" -scrdir="/tmp/"
 Entering Link 1 = /data2/g16/g16/l1.exe PID=     17952.
  
 Copyright (c) 1988-2017, Gaussian, Inc.  All Rights Reserved.
  
 This is part of the Gaussian(R) 16 program.  It is based on
 the Gaussian(R) 09 system (copyright 2009, Gaussian, Inc.),
 the Gaussian(R) 03 system (copyright 2003, Gaussian, Inc.),
 the Gaussian(R) 98 system (copyright 1998, Gaussian, Inc.),
 the Gaussian(R) 94 system (copyright 1995, Gaussian, Inc.),
 the Gaussian 92(TM) system (copyright 1992, Gaussian, Inc.),
 the Gaussian 90(TM) system (copyright 1990, Gaussian, Inc.),
 the Gaussian 88(TM) system (copyright 1988, Gaussian, Inc.),
 the Gaussian 86(TM) system (copyright 1986, Carnegie Mellon
 University), and the Gaussian 82(TM) system (copyright 1983,
 Carnegie Mellon University). Gaussian is a federally registered
 trademark of Gaussian, Inc.
  
 This software contains proprietary and confidential information,
 including trade secrets, belonging to Gaussian, Inc.
  
 This software is provided under written license and may be
 used, copied, transmitted, or stored only in accord with that
 written license.
  
 The following legend is applicable only to US Government
 contracts under FAR:
  
                    RESTRICTED RIGHTS LEGEND
  
 Use, reproduction and disclosure by the US Government is
 subject to restrictions as set forth in subparagraphs (a)
 and (c) of the Commercial Computer Software - Restricted
 Rights clause in FAR 52.227-19.
  
 Gaussian, Inc.
 340 Quinnipiac St., Bldg. 40, Wallingford CT 06492
  
  
 ---------------------------------------------------------------
 Warning -- This program may not be used in any manner that
 competes with the business of Gaussian, Inc. or will provide
 assistance to any competitor of Gaussian, Inc.  The licensee
 of this program is prohibited from giving any competitor of
 Gaussian, Inc. access to this program.  By using this program,
 the user acknowledges that Gaussian, Inc. is engaged in the
 business of creating and licensing software in the field of
 computational chemistry and represents and warrants to the
 licensee that it is not a competitor of Gaussian, Inc. and that
 it will not use this program in any manner prohibited above.
 ---------------------------------------------------------------
  

 Cite this work as:
 Gaussian 16, Revision B.01,
 M. J. Frisch, G. W. Trucks, H. B. Schlegel, G. E. Scuseria, 
 M. A. Robb, J. R. Cheeseman, G. Scalmani, V. Barone, 
 G. A. Petersson, H. Nakatsuji, X. Li, M. Caricato, A. V. Marenich, 
 J. Bloino, B. G. Janesko, R. Gomperts, B. Mennucci, H. P. Hratchian, 
 J. V. Ortiz, A. F. Izmaylov, J. L. Sonnenberg, D. Williams-Young, 
 F. Ding, F. Lipparini, F. Egidi, J. Goings, B. Peng, A. Petrone, 
 T. Henderson, D. Ranasinghe, V. G. Zakrzewski, J. Gao, N. Rega, 
 G. Zheng, W. Liang, M. Hada, M. Ehara, K. Toyota, R. Fukuda, 
 J. Hasegawa, M. Ishida, T. Nakajima, Y. Honda, O. Kitao, H. Nakai, 
 T. Vreven, K. Throssell, J. A. Montgomery, Jr., J. E. Peralta, 
 F. Ogliaro, M. J. Bearpark, J. J. Heyd, E. N. Brothers, K. N. Kudin, 
 V. N. Staroverov, T. A. Keith, R. Kobayashi, J. Normand, 
 K. Raghavachari, A. P. Rendell, J. C. Burant, S. S. Iyengar, 
 J. Tomasi, M. Cossi, J. M. Millam, M. Klene, C. Adamo, R. Cammi, 
 J. W. Ochterski, R. L. Martin, K. Morokuma, O. Farkas, 
 J. B. Foresman, and D. J. Fox, Gaussian, Inc., Wallingford CT, 2016.
 
 ******************************************
 Gaussian 16:  AM64L-G16RevB.01 20-Dec-2017
                17-Jun-2019 
 ******************************************
 %chk=MTN_PBE0_-0.26.chk
 %mem=60GB
 %nprocshared=12
 Will use up to   12 processors via shared memory.
 -----------------
 #p gen 6d pbe1pbe
 -----------------
 1/38=1,172=1/1;
 2/12=2,17=6,18=5,40=1/2;
 3/5=7,8=2,11=2,25=1,30=1,74=-13/1,2,3;
 4//1;
 5/5=2,38=5/2;
 6/7=2,8=2,9=2,10=2,28=1/1;
 99/5=1,9=1/99;
 Leave Link    1 at Mon Jun 17 21:28:03 2019, MaxMem=  8053063680 cpu:               0.0 elap:               0.0
 (Enter /data2/g16/g16/l101.exe)
 ------------------
 start preoptimized
 ------------------
 Symbolic Z-matrix:
 Charge =  0 Multiplicity = 2
 O                    -3.76338   0.20705   0.8707 
 N                    -2.60773   0.03487   0.38262 
 C                    -2.16063  -1.26783  -0.15643 
 C                    -0.88148  -0.84999  -0.82074 
 C                    -0.606     0.44917  -0.65839 
 C                     0.60485   1.12568  -1.19929 
 S                     1.94227   1.44096   0.03329 
 C                    -1.69191   1.16543   0.11604 
 C                    -1.23334   1.76551   1.44891 
 C                    -2.4255    2.21885  -0.71821 
 C                    -3.2125   -1.80834  -1.12868 
 C                    -1.91744  -2.25886   0.98693 
 H                    -0.24163  -1.55927  -1.33901 
 H                     1.06149   0.53955  -2.00354 
 H                     0.38865   2.1296   -1.58337 
 H                    -0.66362   1.03794   2.03632 
 H                    -0.60338   2.64687   1.29036 
 H                    -2.11783   2.07019   2.01952 
 H                    -3.31739   2.54414  -0.17605 
 H                    -1.78749   3.09313  -0.89067 
 H                    -2.7344    1.80927  -1.68639 
 H                    -3.37028  -1.11656  -1.96076 
 H                    -2.89658  -2.77453  -1.53158 
 H                    -4.16237  -1.93905  -0.59784 
 H                    -2.84575  -2.40561   1.55097 
 H                    -1.59158  -3.22601   0.59037 
 H                    -1.14281  -1.88685   1.6678 
 S                     2.75872  -0.53479   0.11018 
 O                     2.33683  -1.21309   1.35302 
 O                     2.50804  -1.18356  -1.20366 
 C                     4.51009  -0.16878   0.24775 
 H                     4.65975   0.44862   1.13409 
 H                     4.99921  -1.13959   0.36411 
 H                     4.8304    0.33431  -0.6661 
 
 ITRead=  0  0  0  0  0  0  0  0  0  0  0  0  0  0  0  0  0  0  0  0
 ITRead=  0  0  0  0  0  0  0  0  0  0  0  0  0  0
 MicOpt= -1 -1 -1 -1 -1 -1 -1 -1 -1 -1 -1 -1 -1 -1 -1 -1 -1 -1 -1 -1
 MicOpt= -1 -1 -1 -1 -1 -1 -1 -1 -1 -1 -1 -1 -1 -1
 NAtoms=     34 NQM=       34 NQMF=       0 NMMI=      0 NMMIF=      0
                NMic=       0 NMicF=      0.
                    Isotopes and Nuclear Properties:
 (Nuclear quadrupole moments (NQMom) in fm**2, nuclear magnetic moments (NMagM)
  in nuclear magnetons)

  Atom         1           2           3           4           5           6           7           8           9          10
 IAtWgt=          16          14          12          12          12          12          32          12          12          12
 AtmWgt=  15.9949146  14.0030740  12.0000000  12.0000000  12.0000000  12.0000000  31.9720718  12.0000000  12.0000000  12.0000000
 NucSpn=           0           2           0           0           0           0           0           0           0           0
 AtZEff=   0.0000000   0.0000000   0.0000000   0.0000000   0.0000000   0.0000000   0.0000000   0.0000000   0.0000000   0.0000000
 NQMom=    0.0000000   2.0440000   0.0000000   0.0000000   0.0000000   0.0000000   0.0000000   0.0000000   0.0000000   0.0000000
 NMagM=    0.0000000   0.4037610   0.0000000   0.0000000   0.0000000   0.0000000   0.0000000   0.0000000   0.0000000   0.0000000
 AtZNuc=   8.0000000   7.0000000   6.0000000   6.0000000   6.0000000   6.0000000  16.0000000   6.0000000   6.0000000   6.0000000

  Atom        11          12          13          14          15          16          17          18          19          20
 IAtWgt=          12          12           1           1           1           1           1           1           1           1
 AtmWgt=  12.0000000  12.0000000   1.0078250   1.0078250   1.0078250   1.0078250   1.0078250   1.0078250   1.0078250   1.0078250
 NucSpn=           0           0           1           1           1           1           1           1           1           1
 AtZEff=   0.0000000   0.0000000   0.0000000   0.0000000   0.0000000   0.0000000   0.0000000   0.0000000   0.0000000   0.0000000
 NQMom=    0.0000000   0.0000000   0.0000000   0.0000000   0.0000000   0.0000000   0.0000000   0.0000000   0.0000000   0.0000000
 NMagM=    0.0000000   0.0000000   2.7928460   2.7928460   2.7928460   2.7928460   2.7928460   2.7928460   2.7928460   2.7928460
 AtZNuc=   6.0000000   6.0000000   1.0000000   1.0000000   1.0000000   1.0000000   1.0000000   1.0000000   1.0000000   1.0000000

  Atom        21          22          23          24          25          26          27          28          29          30
 IAtWgt=           1           1           1           1           1           1           1          32          16          16
 AtmWgt=   1.0078250   1.0078250   1.0078250   1.0078250   1.0078250   1.0078250   1.0078250  31.9720718  15.9949146  15.9949146
 NucSpn=           1           1           1           1           1           1           1           0           0           0
 AtZEff=   0.0000000   0.0000000   0.0000000   0.0000000   0.0000000   0.0000000   0.0000000   0.0000000   0.0000000   0.0000000
 NQMom=    0.0000000   0.0000000   0.0000000   0.0000000   0.0000000   0.0000000   0.0000000   0.0000000   0.0000000   0.0000000
 NMagM=    2.7928460   2.7928460   2.7928460   2.7928460   2.7928460   2.7928460   2.7928460   0.0000000   0.0000000   0.0000000
 AtZNuc=   1.0000000   1.0000000   1.0000000   1.0000000   1.0000000   1.0000000   1.0000000  16.0000000   8.0000000   8.0000000

  Atom        31          32          33          34
 IAtWgt=          12           1           1           1
 AtmWgt=  12.0000000   1.0078250   1.0078250   1.0078250
 NucSpn=           0           1           1           1
 AtZEff=   0.0000000   0.0000000   0.0000000   0.0000000
 NQMom=    0.0000000   0.0000000   0.0000000   0.0000000
 NMagM=    0.0000000   2.7928460   2.7928460   2.7928460
 AtZNuc=   6.0000000   1.0000000   1.0000000   1.0000000
 Leave Link  101 at Mon Jun 17 21:28:04 2019, MaxMem=  8053063680 cpu:               0.0 elap:               0.2
 (Enter /data2/g16/g16/l202.exe)
                          Input orientation:                          
 ---------------------------------------------------------------------
 Center     Atomic      Atomic             Coordinates (Angstroms)
 Number     Number       Type             X           Y           Z
 ---------------------------------------------------------------------
      1          8           0       -3.763382    0.207049    0.870701
      2          7           0       -2.607731    0.034869    0.382621
      3          6           0       -2.160633   -1.267829   -0.156432
      4          6           0       -0.881483   -0.849992   -0.820739
      5          6           0       -0.606004    0.449174   -0.658388
      6          6           0        0.604845    1.125676   -1.199288
      7         16           0        1.942267    1.440961    0.033285
      8          6           0       -1.691906    1.165435    0.116041
      9          6           0       -1.233336    1.765510    1.448911
     10          6           0       -2.425499    2.218854   -0.718214
     11          6           0       -3.212501   -1.808344   -1.128680
     12          6           0       -1.917442   -2.258864    0.986931
     13          1           0       -0.241633   -1.559274   -1.339013
     14          1           0        1.061489    0.539549   -2.003542
     15          1           0        0.388648    2.129595   -1.583368
     16          1           0       -0.663615    1.037940    2.036319
     17          1           0       -0.603383    2.646865    1.290361
     18          1           0       -2.117828    2.070191    2.019522
     19          1           0       -3.317392    2.544135   -0.176046
     20          1           0       -1.787485    3.093130   -0.890669
     21          1           0       -2.734398    1.809268   -1.686386
     22          1           0       -3.370285   -1.116558   -1.960764
     23          1           0       -2.896584   -2.774533   -1.531576
     24          1           0       -4.162369   -1.939048   -0.597838
     25          1           0       -2.845751   -2.405614    1.550970
     26          1           0       -1.591577   -3.226013    0.590368
     27          1           0       -1.142809   -1.886850    1.667799
     28         16           0        2.758723   -0.534788    0.110176
     29          8           0        2.336832   -1.213090    1.353024
     30          8           0        2.508039   -1.183562   -1.203659
     31          6           0        4.510088   -0.168780    0.247746
     32          1           0        4.659752    0.448618    1.134087
     33          1           0        4.999213   -1.139587    0.364106
     34          1           0        4.830398    0.334314   -0.666095
 ---------------------------------------------------------------------
                    Distance matrix (angstroms):
                    1          2          3          4          5
     1  O    0.000000
     2  N    1.266253   0.000000
     3  C    2.408126   1.479019   0.000000
     4  C    3.504803   2.282759   1.500705   0.000000
     5  C    3.516500   2.293961   2.370006   1.337938   0.000000
     6  C    4.920380   3.743386   3.803194   2.501147   1.488752
     7  S    5.897307   4.775103   4.920094   3.735156   2.820592
     8  C    2.403961   1.479182   2.492934   2.365648   1.513920
     9  C    3.027253   2.453784   3.555018   3.480799   2.562615
    10  C    2.891702   2.452516   3.541569   3.436905   2.538879
    11  C    2.891851   2.459108   1.530963   2.539077   3.480142
    12  C    3.082488   2.470405   1.532505   2.515115   3.429346
    13  H    4.517239   3.332227   2.272883   1.086783   2.151716
    14  H    5.625941   4.405866   4.130436   2.665518   2.144327
    15  H    5.192109   4.151057   4.480789   3.327578   2.160726
    16  H    3.414323   2.742345   3.516503   3.431404   2.758878
    17  H    4.014276   3.415249   4.454556   4.094153   2.937256
    18  H    2.738418   2.657440   3.984844   4.257123   3.476278
    19  H    2.599338   2.666860   3.983660   4.227219   3.460223
    20  H    3.916128   3.412775   4.438052   4.046473   2.905229
    21  H    3.188198   2.728613   3.484034   3.354743   2.727031
    22  H    3.150183   2.720060   2.177557   2.750427   3.433504
    23  H    3.925825   3.411792   2.168594   2.875722   4.049877
    24  H    2.630880   2.697137   2.156924   3.464093   4.284274
    25  H    2.851459   2.716183   2.163137   3.450118   4.248240
    26  H    4.072007   3.421853   2.171640   2.853232   4.004715
    27  H    3.447779   2.736911   2.178755   2.708540   3.340107
    28  S    6.608069   5.403477   4.980812   3.770551   3.588908
    29  O    6.281882   5.191126   4.744328   3.900594   3.933088
    30  O    6.750370   5.492901   4.785424   3.427354   3.558147
    31  C    8.305397   7.122009   6.772724   5.538479   5.232336
    32  H    8.430713   7.317937   7.150474   6.017725   5.562477
    33  H    8.879929   7.697096   7.179889   6.005856   5.915075
    34  H    8.731036   7.517662   7.190350   5.835416   5.437621
                    6          7          8          9         10
     6  C    0.000000
     7  S    1.845898   0.000000
     8  C    2.647024   3.645542   0.000000
     9  C    3.286526   3.491960   1.531966   0.000000
    10  C    3.257216   4.499694   1.530958   2.514598   0.000000
    11  C    4.815142   6.203207   3.564394   4.830476   4.123855
    12  C    4.753588   5.430976   3.540500   4.108164   4.818257
    13  H    2.818688   3.956518   3.412406   4.450863   4.407824
    14  H    1.094940   2.395199   3.530658   4.323035   4.078139
    15  H    1.096409   2.345531   2.854172   3.458049   2.945485
    16  H    3.476470   3.311373   2.181996   1.094983   3.476528
    17  H    3.157876   3.084603   2.181409   1.094882   2.745482
    18  H    4.320393   4.563490   2.150170   1.095789   2.758978
    19  H    4.294531   5.378180   2.151356   2.755001   1.093264
    20  H    3.112774   4.182631   2.176834   2.746505   1.095975
    21  H    3.443124   4.996410   2.179462   3.476376   1.095690
    22  H    4.626999   6.224174   3.512487   4.949621   3.682597
    23  H    5.251862   6.605578   4.437256   5.679937   5.081082
    24  H    5.699176   7.006380   4.031206   5.147054   4.507700
    25  H    5.651596   6.326502   4.017807   4.473094   5.168318
    26  H    5.192719   5.880395   4.418129   5.077473   5.661660
    27  H    4.511075   4.823241   3.467839   3.660033   4.918857
    28  S    3.018448   2.139181   4.764335   4.797928   5.928316
    29  O    3.870905   2.990214   4.839239   4.650522   6.224794
    30  O    2.992448   2.956053   4.989883   5.452618   6.012644
    31  C    4.361244   3.038250   6.345251   6.178284   7.398395
    32  H    4.727083   3.095357   6.472542   6.046636   7.534291
    33  H    5.185180   4.014174   7.081365   6.961398   8.220516
    34  H    4.331956   3.170978   6.621401   6.579547   7.496816
                   11         12         13         14         15
    11  C    0.000000
    12  C    2.521102   0.000000
    13  H    2.988701   2.950894   0.000000
    14  H    4.954289   5.064393   2.558277   0.000000
    15  H    5.355593   5.584179   3.750296   1.776938   0.000000
    16  H    4.961388   3.679975   4.279773   4.420956   3.924424
    17  H    5.701591   5.087730   4.973538   4.249985   3.083831
    18  H    5.113953   4.455010   5.288940   5.351258   4.389393
    19  H    4.456746   5.136261   5.258398   5.150991   3.985866
    20  H    5.109967   5.673280   4.922960   3.984459   2.478666
    21  H    3.691441   4.935964   4.204952   4.015163   3.141121
    22  H    1.093539   3.479155   3.220409   4.731294   4.980915
    23  H    1.093458   2.750911   2.926209   5.183843   5.903042
    24  H    1.095959   2.766491   4.008209   5.950474   6.183598
    25  H    2.769794   1.096099   3.981171   6.047732   6.391677
    26  H    2.755414   1.094910   2.884940   5.286453   6.109743
    27  H    3.479954   1.096372   3.156001   4.921899   5.389553
    28  S    6.229946   5.060401   3.485951   2.915923   3.947693
    29  O    6.108050   4.396193   3.743713   3.995595   4.857094
    30  O    5.755046   5.053696   2.778521   2.387767   3.951330
    31  C    8.013807   6.799117   5.199051   4.178859   5.061796
    32  H    8.496256   7.114183   5.845633   4.774985   5.334095
    33  H    8.373046   7.034260   5.526592   4.891924   5.978086
    34  H    8.336258   7.415552   5.455639   4.004443   4.877865
                   16         17         18         19         20
    16  H    0.000000
    17  H    1.774464   0.000000
    18  H    1.783412   1.777012   0.000000
    19  H    3.769047   3.086543   2.546389   0.000000
    20  H    3.748886   2.521536   3.102377   1.775584   0.000000
    21  H    4.329159   3.755505   3.765899   1.777931   1.782726
    22  H    5.286265   5.691126   5.250399   4.072921   4.622968
    23  H    5.678994   6.527914   6.057071   5.504795   6.005858
    24  H    5.295519   6.104283   5.206219   4.581574   5.572131
    25  H    4.105526   5.533866   4.558755   5.263558   6.108823
    26  H    4.597084   5.996433   5.510826   6.071280   6.493336
    27  H    2.986609   4.581267   4.090543   5.268985   5.635740
    28  S    4.230354   4.776977   5.849125   6.817688   5.901821
    29  O    3.812704   4.852633   5.573881   6.958811   6.370846
    30  O    5.048952   5.529309   6.509566   6.991950   6.069562
    31  C    5.605566   5.929797   7.216748   8.295116   7.182999
    32  H    5.431350   5.705901   7.024890   8.351196   7.256717
    33  H    6.293293   6.825265   7.980937   9.111942   8.096272
    34  H    6.162979   6.221060   7.648768   8.456355   7.173414
                   21         22         23         24         25
    21  H    0.000000
    22  H    3.006675   0.000000
    23  H    4.589281   1.776929   0.000000
    24  H    4.156189   1.778048   1.781043   0.000000
    25  H    5.315835   3.777443   3.104960   2.562917   0.000000
    26  H    5.643023   3.757909   2.531704   3.110801   1.780102
    27  H    5.238798   4.326831   3.754958   3.775391   1.784034
    28  S    6.236715   6.495536   6.300342   7.097517   6.081612
    29  O    6.640033   6.600128   6.176380   6.824404   5.321697
    30  O    6.055840   5.927258   5.643462   6.740335   6.143652
    31  C    7.754748   8.238694   8.050759   8.891590   7.798089
    32  H    8.029937   8.746964   8.636705   9.302168   8.040709
    33  H    8.526957   8.686429   8.283132   9.246570   8.034608
    34  H    7.774485   8.428072   8.373783   9.275920   8.446647
                   26         27         28         29         30
    26  H    0.000000
    27  H    1.776403   0.000000
    28  S    5.137936   4.413186   0.000000
    29  O    4.479498   3.558221   1.477416   0.000000
    30  O    4.919044   4.697720   1.486577   2.562579   0.000000
    31  C    6.833329   6.076476   1.794482   2.652407   2.672931
    32  H    7.271703   6.277657   2.372634   2.864466   3.571965
    33  H    6.916855   6.323168   2.334536   2.841062   2.943768
    34  H    7.449590   6.786739   2.376925   3.562186   2.826000
                   31         32         33         34
    31  C    0.000000
    32  H    1.090495   0.000000
    33  H    1.093275   1.797359   0.000000
    34  H    1.091241   1.811861   1.806155   0.000000
 Stoichiometry    C10H18NO3S2(2)
 Framework group  C1[X(C10H18NO3S2)]
 Deg. of freedom    96
 Full point group                 C1      NOp   1
 Largest Abelian subgroup         C1      NOp   1
 Largest concise Abelian subgroup C1      NOp   1
                         Standard orientation:                         
 ---------------------------------------------------------------------
 Center     Atomic      Atomic             Coordinates (Angstroms)
 Number     Number       Type             X           Y           Z
 ---------------------------------------------------------------------
      1          8           0       -3.761515    0.198716    0.879982
      2          7           0       -2.606755    0.028783    0.389015
      3          6           0       -2.158071   -1.273341   -0.150109
      4          6           0       -0.881635   -0.853125   -0.818126
      5          6           0       -0.608727    0.446810   -0.657598
      6          6           0        0.599136    1.125638   -1.202248
      7         16           0        1.939057    1.445053    0.026541
      8          6           0       -1.694241    1.161228    0.119074
      9          6           0       -1.233560    1.763492    1.450227
     10          6           0       -2.432448    2.212243   -0.714142
     11          6           0       -3.211238   -1.817105   -1.119133
     12          6           0       -1.909596   -2.262839    0.993449
     13          1           0       -0.241514   -1.561372   -1.337478
     14          1           0        1.055018    0.539880   -2.007202
     15          1           0        0.379617    2.128729   -1.586608
     16          1           0       -0.660623    1.037737    2.036752
     17          1           0       -0.606059    2.646161    1.289278
     18          1           0       -2.117251    2.066621    2.022901
     19          1           0       -3.323663    2.535931   -0.169909
     20          1           0       -1.796906    3.087839   -0.889011
     21          1           0       -2.742941    1.801122   -1.681153
     22          1           0       -3.372799   -1.126393   -1.951385
     23          1           0       -2.894152   -2.782907   -1.522040
     24          1           0       -4.159405   -1.949544   -0.585688
     25          1           0       -2.836081   -2.411246    1.560048
     26          1           0       -1.582544   -3.229572    0.596850
     27          1           0       -1.134038   -1.888462    1.671966
     28         16           0        2.760265   -0.528744    0.102959
     29          8           0        2.343202   -1.206957    1.347484
     30          8           0        2.507630   -1.179213   -1.209664
     31          6           0        4.511136   -0.158586    0.235619
     32          1           0        4.661702    0.459909    1.121042
     33          1           0        5.002802   -1.128165    0.351516
     34          1           0        4.827886    0.344465   -0.679485
 ---------------------------------------------------------------------
 Rotational constants (GHZ):           0.7798369           0.2770100           0.2422693
 Leave Link  202 at Mon Jun 17 21:28:04 2019, MaxMem=  8053063680 cpu:               0.0 elap:               0.1
 (Enter /data2/g16/g16/l301.exe)
 General basis read from cards:  (6D, 7F)
 Centers:      13     14     15     16     17     18     19     20     21     22
 Centers:      23     24     25     26     27     32     33     34
 6-31G
 S 1 1.00 0.000000000000
     Exponent=  4.0000000000D-01 Coefficients=  1.0000000000D+00
 P 1 1.00 0.000000000000
     Exponent=  7.5000000000D-01 Coefficients=  1.0000000000D+00
 ****
 Centers:       3      4      5      6      8      9     10     11     12     31
 6-31G
 S 1 1.00 0.000000000000
     Exponent=  8.7000000000D+00 Coefficients=  1.0000000000D+00
 P 1 1.00 0.000000000000
     Exponent=  5.0000000000D-02 Coefficients=  1.0000000000D+00
 D 1 1.00
     Exponent=  8.2000000000D-01 Coefficients=  1.0000000000D+00
 ****
 Centers:       2
 6-31G
 S 1 1.00 0.000000000000
     Exponent=  1.3700000000D+01 Coefficients=  1.0000000000D+00
 P 1 1.00 0.000000000000
     Exponent=  5.3000000000D-02 Coefficients=  1.0000000000D+00
 D 1 1.00 0.000000000000
     Exponent=  1.0150000000D+00 Coefficients=  1.0000000000D+00
 ****
 Centers:       1     29     30
 6-31G
 S 1 1.00
     Exponent=  1.6000000000D+01 Coefficients=  1.0000000000D+00
 P 1 1.00 0.000000000000
     Exponent=  6.5000000000D-02 Coefficients=  1.0000000000D+00
 D 1 1.00 0.000000000000
     Exponent=  1.1900000000D+00 Coefficients=  1.0000000000D+00
 D 1 1.00 0.000000000000
     Exponent=  1.8000000000D-01 Coefficients=  1.0000000000D+00
 ****
 Centers:       7     28
 6-31G
 S 1 1.00 0.000000000000
     Exponent=  7.5000000000D+00 Coefficients=  1.0000000000D+00
 P 1 1.00 0.000000000000
     Exponent=  4.1000000000D-02 Coefficients=  1.0000000000D+00
 D 1 1.00 0.000000000000
     Exponent=  4.7900000000D-01 Coefficients=  1.0000000000D+00
 ****
 Ernie: Thresh=  0.10000D-02 Tol=  0.10000D-05 Strict=F.
 There are   438 symmetry adapted cartesian basis functions of A   symmetry.
 There are   438 symmetry adapted basis functions of A   symmetry.
   438 basis functions,   722 primitive gaussians,   438 cartesian basis functions
    71 alpha electrons       70 beta electrons
       nuclear repulsion energy      1520.7470025369 Hartrees.
 IExCor= 1009 DFT=T Ex+Corr=PBE1PBE ExCW=0 ScaHFX=  0.250000
 ScaDFX=  0.750000  0.750000  1.000000  1.000000 ScalE2=  1.000000  1.000000
 IRadAn=      5 IRanWt=     -1 IRanGd=            0 ICorTp=0 IEmpDi=  4
 NAtoms=   34 NActive=   34 NUniq=   34 SFac= 1.00D+00 NAtFMM=   60 NAOKFM=F Big=F
 Integral buffers will be    131072 words long.
 Raffenetti 2 integral format.
 Two-electron integral symmetry is turned on.
 Leave Link  301 at Mon Jun 17 21:28:04 2019, MaxMem=  8053063680 cpu:               0.0 elap:               0.2
 (Enter /data2/g16/g16/l302.exe)
 NPDir=0 NMtPBC=     1 NCelOv=     1 NCel=       1 NClECP=     1 NCelD=      1
         NCelK=      1 NCelE2=     1 NClLst=     1 CellRange=     0.0.
 One-electron integrals computed using PRISM.
 One-electron integral symmetry used in STVInt
 NBasis=   438 RedAO= T EigKep=  6.45D-05  NBF=   438
 NBsUse=   438 1.00D-06 EigRej= -1.00D+00 NBFU=   438
 Precomputing XC quadrature grid using
 IXCGrd= 4 IRadAn=           5 IRanWt=          -1 IRanGd=           0 AccXCQ= 0.00D+00.
 Generated NRdTot=       0 NPtTot=           0 NUsed=           0 NTot=          32
 NSgBfM=   433   433   433   433   433 MxSgAt=    34 MxSgA2=    34.
 Leave Link  302 at Mon Jun 17 21:28:04 2019, MaxMem=  8053063680 cpu:               0.0 elap:               0.5
 (Enter /data2/g16/g16/l303.exe)
 DipDrv:  MaxL=1.
 Leave Link  303 at Mon Jun 17 21:28:04 2019, MaxMem=  8053063680 cpu:               0.0 elap:               0.1
 (Enter /data2/g16/g16/l401.exe)
 ExpMin= 4.10D-02 ExpMax= 2.19D+04 ExpMxC= 3.30D+03 IAcc=3 IRadAn=         5 AccDes= 0.00D+00
 Harris functional with IExCor= 1009 and IRadAn=       5 diagonalized for initial guess.
 HarFok:  IExCor= 1009 AccDes= 0.00D+00 IRadAn=         5 IDoV= 1 UseB2=F ITyADJ=14
 ICtDFT=  3500011 ScaDFX=  1.000000  1.000000  1.000000  1.000000
 FoFCou: FMM=F IPFlag=           0 FMFlag=      100000 FMFlg1=           0
         NFxFlg=           0 DoJE=T BraDBF=F KetDBF=T FulRan=T
         wScrn=  0.000000 ICntrl=       500 IOpCl=  0 I1Cent=   200000004 NGrid=           0
         NMat0=    1 NMatS0=      1 NMatT0=    0 NMatD0=    1 NMtDS0=    0 NMtDT0=    0
 Petite list used in FoFCou.
 Harris En= -1467.69847823788    
 JPrj=0 DoOrth=F DoCkMO=F.
 Initial guess <Sx>= 0.0000 <Sy>= 0.0000 <Sz>= 0.5000 <S**2>= 0.7500 S= 0.5000
 Leave Link  401 at Mon Jun 17 21:28:06 2019, MaxMem=  8053063680 cpu:               0.0 elap:               1.6
 (Enter /data2/g16/g16/l502.exe)
 Integral symmetry usage will be decided dynamically.
 UHF open shell SCF:
 Using DIIS extrapolation, IDIIS=  1040.
 NGot=  8053063680 LenX=  8052670277 LenY=  8052477992
 Requested convergence on RMS density matrix=1.00D-08 within 128 cycles.
 Requested convergence on MAX density matrix=1.00D-06.
 Requested convergence on             energy=1.00D-06.
 No special actions if energy rises.
 Fock matrices will be formed incrementally for  20 cycles.

 Cycle   1  Pass 1  IDiag  1:
 FoFJK:  IHMeth= 1 ICntrl=       0 DoSepK=F KAlg= 0 I1Cent=           0 FoldK=F
 IRaf= 840000000 NMat=       1 IRICut=       1 DoRegI=T DoRafI=F ISym2E= 0 IDoP0=0 IntGTp=1.
 FoFCou: FMM=F IPFlag=           0 FMFlag=      100000 FMFlg1=           0
         NFxFlg=           0 DoJE=F BraDBF=F KetDBF=F FulRan=T
         wScrn=  0.000000 ICntrl=         0 IOpCl=  1 I1Cent=           0 NGrid=           0
         NMat0=    1 NMatS0=      1 NMatT0=    0 NMatD0=    1 NMtDS0=    0 NMtDT0=    0
 Symmetry not used in FoFCou.
 E= -1466.93541375450    
 DIIS: error= 2.57D-02 at cycle   1 NSaved=   1.
 NSaved= 1 IEnMin= 1 EnMin= -1466.93541375450     IErMin= 1 ErrMin= 2.57D-02
 ErrMax= 2.57D-02  0.00D+00 EMaxC= 1.00D-01 BMatC= 2.97D+00 BMatP= 2.97D+00
 IDIUse=3 WtCom= 7.43D-01 WtEn= 2.57D-01
 Coeff-Com:  0.100D+01
 Coeff-En:   0.100D+01
 Coeff:      0.100D+01
 Gap=     0.224 Goal=   None    Shift=    0.000
 Gap=     0.365 Goal=   None    Shift=    0.000
 GapD=    0.224 DampG=1.000 DampE=0.500 DampFc=0.5000 IDamp=-1.
 Damping current iteration by 5.00D-01
 RMSDP=4.75D-03 MaxDP=4.12D-01              OVMax= 2.98D-01

 Cycle   2  Pass 1  IDiag  1:
 RMSU=  2.37D-03    CP:  9.92D-01
 E= -1467.06137296252     Delta-E=       -0.125959208017 Rises=F Damp=T
 DIIS: error= 1.02D-02 at cycle   2 NSaved=   2.
 NSaved= 2 IEnMin= 2 EnMin= -1467.06137296252     IErMin= 2 ErrMin= 1.02D-02
 ErrMax= 1.02D-02  0.00D+00 EMaxC= 1.00D-01 BMatC= 5.24D-01 BMatP= 2.97D+00
 IDIUse=3 WtCom= 8.98D-01 WtEn= 1.02D-01
 Coeff-Com:  0.227D+00 0.773D+00
 Coeff-En:   0.396D+00 0.604D+00
 Coeff:      0.244D+00 0.756D+00
 Gap=     0.128 Goal=   None    Shift=    0.000
 Gap=     0.185 Goal=   None    Shift=    0.000
 RMSDP=1.67D-03 MaxDP=1.19D-01 DE=-1.26D-01 OVMax= 2.85D-01

 Cycle   3  Pass 1  IDiag  1:
 RMSU=  1.39D-03    CP:  9.82D-01  6.10D-01
 E= -1467.46576859349     Delta-E=       -0.404395630970 Rises=F Damp=F
 DIIS: error= 7.53D-03 at cycle   3 NSaved=   3.
 NSaved= 3 IEnMin= 3 EnMin= -1467.46576859349     IErMin= 3 ErrMin= 7.53D-03
 ErrMax= 7.53D-03  0.00D+00 EMaxC= 1.00D-01 BMatC= 3.57D-01 BMatP= 5.24D-01
 IDIUse=3 WtCom= 9.25D-01 WtEn= 7.53D-02
 Coeff-Com:  0.532D-01 0.446D+00 0.501D+00
 Coeff-En:   0.000D+00 0.000D+00 0.100D+01
 Coeff:      0.492D-01 0.412D+00 0.538D+00
 Gap=     0.145 Goal=   None    Shift=    0.000
 Gap=     0.223 Goal=   None    Shift=    0.000
 RMSDP=9.22D-04 MaxDP=6.34D-02 DE=-4.04D-01 OVMax= 1.08D-01

 Cycle   4  Pass 1  IDiag  1:
 RMSU=  6.15D-04    CP:  9.87D-01  7.31D-01  5.53D-01
 E= -1467.53917645368     Delta-E=       -0.073407860186 Rises=F Damp=F
 DIIS: error= 2.26D-03 at cycle   4 NSaved=   4.
 NSaved= 4 IEnMin= 4 EnMin= -1467.53917645368     IErMin= 4 ErrMin= 2.26D-03
 ErrMax= 2.26D-03  0.00D+00 EMaxC= 1.00D-01 BMatC= 3.96D-02 BMatP= 3.57D-01
 IDIUse=3 WtCom= 9.77D-01 WtEn= 2.26D-02
 Coeff-Com: -0.139D-01 0.708D-01 0.270D+00 0.673D+00
 Coeff-En:   0.000D+00 0.000D+00 0.770D-01 0.923D+00
 Coeff:     -0.136D-01 0.692D-01 0.266D+00 0.678D+00
 Gap=     0.144 Goal=   None    Shift=    0.000
 Gap=     0.202 Goal=   None    Shift=    0.000
 RMSDP=3.04D-04 MaxDP=1.66D-02 DE=-7.34D-02 OVMax= 3.05D-02

 Cycle   5  Pass 1  IDiag  1:
 RMSU=  2.03D-04    CP:  9.86D-01  7.23D-01  6.55D-01  7.15D-01
 E= -1467.54742102476     Delta-E=       -0.008244571087 Rises=F Damp=F
 DIIS: error= 8.72D-04 at cycle   5 NSaved=   5.
 NSaved= 5 IEnMin= 5 EnMin= -1467.54742102476     IErMin= 5 ErrMin= 8.72D-04
 ErrMax= 8.72D-04  0.00D+00 EMaxC= 1.00D-01 BMatC= 3.98D-03 BMatP= 3.96D-02
 IDIUse=3 WtCom= 9.91D-01 WtEn= 8.72D-03
 Coeff-Com: -0.984D-02 0.177D-01 0.123D+00 0.378D+00 0.492D+00
 Coeff-En:   0.000D+00 0.000D+00 0.000D+00 0.000D+00 0.100D+01
 Coeff:     -0.976D-02 0.176D-01 0.121D+00 0.375D+00 0.496D+00
 Gap=     0.145 Goal=   None    Shift=    0.000
 Gap=     0.205 Goal=   None    Shift=    0.000
 RMSDP=1.10D-04 MaxDP=5.35D-03 DE=-8.24D-03 OVMax= 1.26D-02

 Cycle   6  Pass 1  IDiag  1:
 RMSU=  6.96D-05    CP:  9.85D-01  7.25D-01  6.52D-01  7.72D-01  6.24D-01
 E= -1467.54828493233     Delta-E=       -0.000863907564 Rises=F Damp=F
 DIIS: error= 2.40D-04 at cycle   6 NSaved=   6.
 NSaved= 6 IEnMin= 6 EnMin= -1467.54828493233     IErMin= 6 ErrMin= 2.40D-04
 ErrMax= 2.40D-04  0.00D+00 EMaxC= 1.00D-01 BMatC= 4.05D-04 BMatP= 3.98D-03
 IDIUse=3 WtCom= 9.98D-01 WtEn= 2.40D-03
 Coeff-Com: -0.331D-02 0.207D-02 0.341D-01 0.119D+00 0.273D+00 0.576D+00
 Coeff-En:   0.000D+00 0.000D+00 0.000D+00 0.000D+00 0.436D-01 0.956D+00
 Coeff:     -0.330D-02 0.206D-02 0.340D-01 0.118D+00 0.272D+00 0.577D+00
 Gap=     0.147 Goal=   None    Shift=    0.000
 Gap=     0.206 Goal=   None    Shift=    0.000
 RMSDP=3.59D-05 MaxDP=2.49D-03 DE=-8.64D-04 OVMax= 5.19D-03

 Cycle   7  Pass 1  IDiag  1:
 RMSU=  2.54D-05    CP:  9.85D-01  7.22D-01  6.57D-01  7.74D-01  6.68D-01
                    CP:  6.98D-01
 E= -1467.54837880210     Delta-E=       -0.000093869773 Rises=F Damp=F
 DIIS: error= 1.18D-04 at cycle   7 NSaved=   7.
 NSaved= 7 IEnMin= 7 EnMin= -1467.54837880210     IErMin= 7 ErrMin= 1.18D-04
 ErrMax= 1.18D-04  0.00D+00 EMaxC= 1.00D-01 BMatC= 6.67D-05 BMatP= 4.05D-04
 IDIUse=3 WtCom= 9.99D-01 WtEn= 1.18D-03
 Coeff-Com: -0.747D-04-0.236D-02-0.267D-02 0.554D-04 0.600D-01 0.329D+00
 Coeff-Com:  0.616D+00
 Coeff-En:   0.000D+00 0.000D+00 0.000D+00 0.000D+00 0.000D+00 0.701D-01
 Coeff-En:   0.930D+00
 Coeff:     -0.747D-04-0.235D-02-0.267D-02 0.554D-04 0.599D-01 0.329D+00
 Coeff:      0.616D+00
 Gap=     0.147 Goal=   None    Shift=    0.000
 Gap=     0.206 Goal=   None    Shift=    0.000
 RMSDP=1.50D-05 MaxDP=9.80D-04 DE=-9.39D-05 OVMax= 1.16D-03

 Cycle   8  Pass 1  IDiag  1:
 RMSU=  1.04D-05    CP:  9.85D-01  7.22D-01  6.57D-01  7.74D-01  7.01D-01
                    CP:  7.92D-01  7.96D-01
 E= -1467.54839497288     Delta-E=       -0.000016170781 Rises=F Damp=F
 DIIS: error= 3.17D-05 at cycle   8 NSaved=   8.
 NSaved= 8 IEnMin= 8 EnMin= -1467.54839497288     IErMin= 8 ErrMin= 3.17D-05
 ErrMax= 3.17D-05  0.00D+00 EMaxC= 1.00D-01 BMatC= 5.17D-06 BMatP= 6.67D-05
 IDIUse=1 WtCom= 1.00D+00 WtEn= 0.00D+00
 Coeff-Com:  0.461D-03-0.126D-02-0.525D-02-0.149D-01-0.151D-01 0.702D-01
 Coeff-Com:  0.227D+00 0.739D+00
 Coeff:      0.461D-03-0.126D-02-0.525D-02-0.149D-01-0.151D-01 0.702D-01
 Coeff:      0.227D+00 0.739D+00
 Gap=     0.147 Goal=   None    Shift=    0.000
 Gap=     0.206 Goal=   None    Shift=    0.000
 RMSDP=5.17D-06 MaxDP=6.22D-04 DE=-1.62D-05 OVMax= 1.19D-03

 Cycle   9  Pass 1  IDiag  1:
 RMSU=  4.29D-06    CP:  9.85D-01  7.22D-01  6.57D-01  7.76D-01  7.01D-01
                    CP:  8.22D-01  8.39D-01  9.08D-01
 E= -1467.54839644004     Delta-E=       -0.000001467161 Rises=F Damp=F
 DIIS: error= 2.12D-05 at cycle   9 NSaved=   9.
 NSaved= 9 IEnMin= 9 EnMin= -1467.54839644004     IErMin= 9 ErrMin= 2.12D-05
 ErrMax= 2.12D-05  0.00D+00 EMaxC= 1.00D-01 BMatC= 3.24D-06 BMatP= 5.17D-06
 IDIUse=1 WtCom= 1.00D+00 WtEn= 0.00D+00
 Coeff-Com:  0.368D-03-0.437D-03-0.289D-02-0.101D-01-0.258D-01-0.254D-01
 Coeff-Com: -0.210D-02 0.490D+00 0.576D+00
 Coeff:      0.368D-03-0.437D-03-0.289D-02-0.101D-01-0.258D-01-0.254D-01
 Coeff:     -0.210D-02 0.490D+00 0.576D+00
 Gap=     0.147 Goal=   None    Shift=    0.000
 Gap=     0.206 Goal=   None    Shift=    0.000
 RMSDP=3.32D-06 MaxDP=2.37D-04 DE=-1.47D-06 OVMax= 2.89D-04

 Cycle  10  Pass 1  IDiag  1:
 RMSU=  2.32D-06    CP:  9.85D-01  7.22D-01  6.57D-01  7.75D-01  7.05D-01
                    CP:  8.39D-01  8.78D-01  1.04D+00  8.49D-01
 E= -1467.54839717077     Delta-E=       -0.000000730730 Rises=F Damp=F
 DIIS: error= 9.36D-06 at cycle  10 NSaved=  10.
 NSaved=10 IEnMin=10 EnMin= -1467.54839717077     IErMin=10 ErrMin= 9.36D-06
 ErrMax= 9.36D-06  0.00D+00 EMaxC= 1.00D-01 BMatC= 5.56D-07 BMatP= 3.24D-06
 IDIUse=1 WtCom= 1.00D+00 WtEn= 0.00D+00
 Coeff-Com:  0.117D-03 0.622D-04-0.164D-03-0.180D-02-0.122D-01-0.321D-01
 Coeff-Com: -0.701D-01 0.110D+00 0.342D+00 0.665D+00
 Coeff:      0.117D-03 0.622D-04-0.164D-03-0.180D-02-0.122D-01-0.321D-01
 Coeff:     -0.701D-01 0.110D+00 0.342D+00 0.665D+00
 Gap=     0.147 Goal=   None    Shift=    0.000
 Gap=     0.206 Goal=   None    Shift=    0.000
 RMSDP=1.63D-06 MaxDP=1.30D-04 DE=-7.31D-07 OVMax= 2.75D-04

 Cycle  11  Pass 1  IDiag  1:
 RMSU=  9.60D-07    CP:  9.85D-01  7.22D-01  6.57D-01  7.75D-01  7.05D-01
                    CP:  8.46D-01  8.87D-01  1.14D+00  9.80D-01  8.73D-01
 E= -1467.54839733211     Delta-E=       -0.000000161340 Rises=F Damp=F
 DIIS: error= 5.55D-06 at cycle  11 NSaved=  11.
 NSaved=11 IEnMin=11 EnMin= -1467.54839733211     IErMin=11 ErrMin= 5.55D-06
 ErrMax= 5.55D-06  0.00D+00 EMaxC= 1.00D-01 BMatC= 1.04D-07 BMatP= 5.56D-07
 IDIUse=1 WtCom= 1.00D+00 WtEn= 0.00D+00
 Coeff-Com:  0.367D-05 0.829D-04 0.435D-03 0.843D-03-0.221D-02-0.108D-01
 Coeff-Com: -0.369D-01-0.199D-01 0.668D-01 0.358D+00 0.644D+00
 Coeff:      0.367D-05 0.829D-04 0.435D-03 0.843D-03-0.221D-02-0.108D-01
 Coeff:     -0.369D-01-0.199D-01 0.668D-01 0.358D+00 0.644D+00
 Gap=     0.147 Goal=   None    Shift=    0.000
 Gap=     0.206 Goal=   None    Shift=    0.000
 RMSDP=6.20D-07 MaxDP=6.30D-05 DE=-1.61D-07 OVMax= 1.26D-04

 Cycle  12  Pass 1  IDiag  1:
 RMSU=  4.35D-07    CP:  9.85D-01  7.22D-01  6.57D-01  7.75D-01  7.04D-01
                    CP:  8.48D-01  8.84D-01  1.15D+00  1.03D+00  9.86D-01
                    CP:  8.27D-01
 E= -1467.54839735848     Delta-E=       -0.000000026371 Rises=F Damp=F
 DIIS: error= 3.36D-06 at cycle  12 NSaved=  12.
 NSaved=12 IEnMin=12 EnMin= -1467.54839735848     IErMin=12 ErrMin= 3.36D-06
 ErrMax= 3.36D-06  0.00D+00 EMaxC= 1.00D-01 BMatC= 2.82D-08 BMatP= 1.04D-07
 IDIUse=1 WtCom= 1.00D+00 WtEn= 0.00D+00
 Coeff-Com: -0.145D-04 0.309D-04 0.302D-03 0.830D-03 0.614D-03-0.136D-02
 Coeff-Com: -0.125D-01-0.343D-01-0.273D-01 0.104D+00 0.404D+00 0.565D+00
 Coeff:     -0.145D-04 0.309D-04 0.302D-03 0.830D-03 0.614D-03-0.136D-02
 Coeff:     -0.125D-01-0.343D-01-0.273D-01 0.104D+00 0.404D+00 0.565D+00
 Gap=     0.147 Goal=   None    Shift=    0.000
 Gap=     0.206 Goal=   None    Shift=    0.000
 RMSDP=3.34D-07 MaxDP=2.33D-05 DE=-2.64D-08 OVMax= 2.91D-05

 Cycle  13  Pass 1  IDiag  1:
 RMSU=  2.07D-07    CP:  9.85D-01  7.22D-01  6.57D-01  7.75D-01  7.04D-01
                    CP:  8.49D-01  8.85D-01  1.15D+00  1.05D+00  1.05D+00
                    CP:  9.51D-01  8.39D-01
 E= -1467.54839736449     Delta-E=       -0.000000006008 Rises=F Damp=F
 DIIS: error= 1.05D-06 at cycle  13 NSaved=  13.
 NSaved=13 IEnMin=13 EnMin= -1467.54839736449     IErMin=13 ErrMin= 1.05D-06
 ErrMax= 1.05D-06  0.00D+00 EMaxC= 1.00D-01 BMatC= 4.06D-09 BMatP= 2.82D-08
 IDIUse=1 WtCom= 1.00D+00 WtEn= 0.00D+00
 Coeff-Com: -0.519D-05-0.736D-05 0.572D-04 0.216D-03 0.890D-03 0.271D-02
 Coeff-Com:  0.351D-02-0.965D-02-0.328D-01-0.349D-01 0.600D-01 0.305D+00
 Coeff-Com:  0.705D+00
 Coeff:     -0.519D-05-0.736D-05 0.572D-04 0.216D-03 0.890D-03 0.271D-02
 Coeff:      0.351D-02-0.965D-02-0.328D-01-0.349D-01 0.600D-01 0.305D+00
 Coeff:      0.705D+00
 Gap=     0.147 Goal=   None    Shift=    0.000
 Gap=     0.206 Goal=   None    Shift=    0.000
 RMSDP=1.28D-07 MaxDP=1.33D-05 DE=-6.01D-09 OVMax= 2.18D-05

 Cycle  14  Pass 1  IDiag  1:
 RMSU=  1.06D-07    CP:  9.85D-01  7.22D-01  6.57D-01  7.75D-01  7.04D-01
                    CP:  8.49D-01  8.85D-01  1.15D+00  1.05D+00  1.07D+00
                    CP:  9.83D-01  8.59D-01  8.25D-01
 E= -1467.54839736596     Delta-E=       -0.000000001474 Rises=F Damp=F
 DIIS: error= 5.56D-07 at cycle  14 NSaved=  14.
 NSaved=14 IEnMin=14 EnMin= -1467.54839736596     IErMin=14 ErrMin= 5.56D-07
 ErrMax= 5.56D-07  0.00D+00 EMaxC= 1.00D-01 BMatC= 8.73D-10 BMatP= 4.06D-09
 IDIUse=1 WtCom= 1.00D+00 WtEn= 0.00D+00
 Coeff-Com:  0.201D-06-0.113D-04-0.280D-04-0.443D-04 0.333D-03 0.163D-02
 Coeff-Com:  0.399D-02 0.171D-02-0.120D-01-0.390D-01-0.524D-01 0.221D-01
 Coeff-Com:  0.375D+00 0.699D+00
 Coeff:      0.201D-06-0.113D-04-0.280D-04-0.443D-04 0.333D-03 0.163D-02
 Coeff:      0.399D-02 0.171D-02-0.120D-01-0.390D-01-0.524D-01 0.221D-01
 Coeff:      0.375D+00 0.699D+00
 Gap=     0.147 Goal=   None    Shift=    0.000
 Gap=     0.206 Goal=   None    Shift=    0.000
 RMSDP=7.26D-08 MaxDP=4.78D-06 DE=-1.47D-09 OVMax= 6.05D-06

 Cycle  15  Pass 1  IDiag  1:
 RMSU=  3.48D-08    CP:  9.85D-01  7.22D-01  6.57D-01  7.75D-01  7.04D-01
                    CP:  8.49D-01  8.85D-01  1.15D+00  1.06D+00  1.08D+00
                    CP:  1.01D+00  9.47D-01  9.47D-01  8.12D-01
 E= -1467.54839736616     Delta-E=       -0.000000000201 Rises=F Damp=F
 DIIS: error= 1.36D-07 at cycle  15 NSaved=  15.
 NSaved=15 IEnMin=15 EnMin= -1467.54839736616     IErMin=15 ErrMin= 1.36D-07
 ErrMax= 1.36D-07  0.00D+00 EMaxC= 1.00D-01 BMatC= 5.95D-11 BMatP= 8.73D-10
 IDIUse=1 WtCom= 1.00D+00 WtEn= 0.00D+00
 Coeff-Com:  0.823D-06-0.238D-05-0.197D-04-0.496D-04-0.130D-04 0.208D-03
 Coeff-Com:  0.866D-03 0.215D-02 0.445D-03-0.799D-02-0.262D-01-0.405D-01
 Coeff-Com:  0.404D-01 0.224D+00 0.807D+00
 Coeff:      0.823D-06-0.238D-05-0.197D-04-0.496D-04-0.130D-04 0.208D-03
 Coeff:      0.866D-03 0.215D-02 0.445D-03-0.799D-02-0.262D-01-0.405D-01
 Coeff:      0.404D-01 0.224D+00 0.807D+00
 Gap=     0.147 Goal=   None    Shift=    0.000
 Gap=     0.206 Goal=   None    Shift=    0.000
 RMSDP=2.08D-08 MaxDP=1.24D-06 DE=-2.01D-10 OVMax= 2.18D-06

 Cycle  16  Pass 1  IDiag  1:
 RMSU=  1.43D-08    CP:  9.85D-01  7.22D-01  6.57D-01  7.75D-01  7.04D-01
                    CP:  8.49D-01  8.85D-01  1.16D+00  1.06D+00  1.08D+00
                    CP:  1.01D+00  9.48D-01  9.95D-01  8.93D-01  9.39D-01
 E= -1467.54839736605     Delta-E=        0.000000000120 Rises=F Damp=F
 DIIS: error= 4.85D-08 at cycle  16 NSaved=  16.
 NSaved=16 IEnMin=15 EnMin= -1467.54839736616     IErMin=16 ErrMin= 4.85D-08
 ErrMax= 4.85D-08  0.00D+00 EMaxC= 1.00D-01 BMatC= 1.18D-11 BMatP= 5.95D-11
 IDIUse=1 WtCom= 1.00D+00 WtEn= 0.00D+00
 Coeff-Com:  0.155D-06 0.982D-06-0.359D-05-0.113D-04-0.551D-04-0.158D-03
 Coeff-Com: -0.267D-03 0.597D-03 0.187D-02 0.299D-02-0.243D-02-0.196D-01
 Coeff-Com: -0.378D-01-0.235D-01 0.318D+00 0.760D+00
 Coeff:      0.155D-06 0.982D-06-0.359D-05-0.113D-04-0.551D-04-0.158D-03
 Coeff:     -0.267D-03 0.597D-03 0.187D-02 0.299D-02-0.243D-02-0.196D-01
 Coeff:     -0.378D-01-0.235D-01 0.318D+00 0.760D+00
 Gap=     0.147 Goal=   None    Shift=    0.000
 Gap=     0.206 Goal=   None    Shift=    0.000
 RMSDP=8.89D-09 MaxDP=4.94D-07 DE= 1.20D-10 OVMax= 1.31D-06

 SCF Done:  E(UPBE1PBE) =  -1467.54839737     A.U. after   16 cycles
            NFock= 16  Conv=0.89D-08     -V/T= 2.0053
 <Sx>= 0.0000 <Sy>= 0.0000 <Sz>= 0.5000 <S**2>= 0.7550 S= 0.5025
 <L.S>=  0.00000000000    
 KE= 1.459875469511D+03 PE=-6.496878085046D+03 EE= 2.048707215631D+03
 Annihilation of the first spin contaminant:
 S**2 before annihilation     0.7550,   after     0.7500
 Leave Link  502 at Mon Jun 17 21:30:44 2019, MaxMem=  8053063680 cpu:               0.0 elap:             157.7
 (Enter /data2/g16/g16/l601.exe)
 Copying SCF densities to generalized density rwf, IOpCl= 1 IROHF=0.

 **********************************************************************

            Population analysis using the SCF Density.

 **********************************************************************

 Orbital symmetries:
 Alpha Orbitals:
       Occupied  (A) (A) (A) (A) (A) (A) (A) (A) (A) (A) (A) (A)
                 (A) (A) (A) (A) (A) (A) (A) (A) (A) (A) (A) (A)
                 (A) (A) (A) (A) (A) (A) (A) (A) (A) (A) (A) (A)
                 (A) (A) (A) (A) (A) (A) (A) (A) (A) (A) (A) (A)
                 (A) (A) (A) (A) (A) (A) (A) (A) (A) (A) (A) (A)
                 (A) (A) (A) (A) (A) (A) (A) (A) (A) (A) (A)
       Virtual   (A) (A) (A) (A) (A) (A) (A) (A) (A) (A) (A) (A)
                 (A) (A) (A) (A) (A) (A) (A) (A) (A) (A) (A) (A)
                 (A) (A) (A) (A) (A) (A) (A) (A) (A) (A) (A) (A)
                 (A) (A) (A) (A) (A) (A) (A) (A) (A) (A) (A) (A)
                 (A) (A) (A) (A) (A) (A) (A) (A) (A) (A) (A) (A)
                 (A) (A) (A) (A) (A) (A) (A) (A) (A) (A) (A) (A)
                 (A) (A) (A) (A) (A) (A) (A) (A) (A) (A) (A) (A)
                 (A) (A) (A) (A) (A) (A) (A) (A) (A) (A) (A) (A)
                 (A) (A) (A) (A) (A) (A) (A) (A) (A) (A) (A) (A)
                 (A) (A) (A) (A) (A) (A) (A) (A) (A) (A) (A) (A)
                 (A) (A) (A) (A) (A) (A) (A) (A) (A) (A) (A) (A)
                 (A) (A) (A) (A) (A) (A) (A) (A) (A) (A) (A) (A)
                 (A) (A) (A) (A) (A) (A) (A) (A) (A) (A) (A) (A)
                 (A) (A) (A) (A) (A) (A) (A) (A) (A) (A) (A) (A)
                 (A) (A) (A) (A) (A) (A) (A) (A) (A) (A) (A) (A)
                 (A) (A) (A) (A) (A) (A) (A) (A) (A) (A) (A) (A)
                 (A) (A) (A) (A) (A) (A) (A) (A) (A) (A) (A) (A)
                 (A) (A) (A) (A) (A) (A) (A) (A) (A) (A) (A) (A)
                 (A) (A) (A) (A) (A) (A) (A) (A) (A) (A) (A) (A)
                 (A) (A) (A) (A) (A) (A) (A) (A) (A) (A) (A) (A)
                 (A) (A) (A) (A) (A) (A) (A) (A) (A) (A) (A) (A)
                 (A) (A) (A) (A) (A) (A) (A) (A) (A) (A) (A) (A)
                 (A) (A) (A) (A) (A) (A) (A) (A) (A) (A) (A) (A)
                 (A) (A) (A) (A) (A) (A) (A) (A) (A) (A) (A) (A)
                 (A) (A) (A) (A) (A) (A) (A) (A) (A) (A) (A) (A)
                 (A) (A) (A) (A) (A) (A) (A) (A) (A) (A) (A) (A)
                 (A) (A) (A) (A) (A) (A) (A) (A) (A) (A) (A) (A)
                 (A) (A) (A) (A) (A) (A) (A) (A) (A) (A) (A) (A)
                 (A) (A) (A) (A) (A) (A) (A) (A) (A) (A) (A) (A)
                 (A) (A) (A) (A) (A) (A) (A) (A) (A) (A) (A) (A)
                 (A) (A) (A) (A) (A) (A) (A)
 Beta  Orbitals:
       Occupied  (A) (A) (A) (A) (A) (A) (A) (A) (A) (A) (A) (A)
                 (A) (A) (A) (A) (A) (A) (A) (A) (A) (A) (A) (A)
                 (A) (A) (A) (A) (A) (A) (A) (A) (A) (A) (A) (A)
                 (A) (A) (A) (A) (A) (A) (A) (A) (A) (A) (A) (A)
                 (A) (A) (A) (A) (A) (A) (A) (A) (A) (A) (A) (A)
                 (A) (A) (A) (A) (A) (A) (A) (A) (A) (A)
       Virtual   (A) (A) (A) (A) (A) (A) (A) (A) (A) (A) (A) (A)
                 (A) (A) (A) (A) (A) (A) (A) (A) (A) (A) (A) (A)
                 (A) (A) (A) (A) (A) (A) (A) (A) (A) (A) (A) (A)
                 (A) (A) (A) (A) (A) (A) (A) (A) (A) (A) (A) (A)
                 (A) (A) (A) (A) (A) (A) (A) (A) (A) (A) (A) (A)
                 (A) (A) (A) (A) (A) (A) (A) (A) (A) (A) (A) (A)
                 (A) (A) (A) (A) (A) (A) (A) (A) (A) (A) (A) (A)
                 (A) (A) (A) (A) (A) (A) (A) (A) (A) (A) (A) (A)
                 (A) (A) (A) (A) (A) (A) (A) (A) (A) (A) (A) (A)
                 (A) (A) (A) (A) (A) (A) (A) (A) (A) (A) (A) (A)
                 (A) (A) (A) (A) (A) (A) (A) (A) (A) (A) (A) (A)
                 (A) (A) (A) (A) (A) (A) (A) (A) (A) (A) (A) (A)
                 (A) (A) (A) (A) (A) (A) (A) (A) (A) (A) (A) (A)
                 (A) (A) (A) (A) (A) (A) (A) (A) (A) (A) (A) (A)
                 (A) (A) (A) (A) (A) (A) (A) (A) (A) (A) (A) (A)
                 (A) (A) (A) (A) (A) (A) (A) (A) (A) (A) (A) (A)
                 (A) (A) (A) (A) (A) (A) (A) (A) (A) (A) (A) (A)
                 (A) (A) (A) (A) (A) (A) (A) (A) (A) (A) (A) (A)
                 (A) (A) (A) (A) (A) (A) (A) (A) (A) (A) (A) (A)
                 (A) (A) (A) (A) (A) (A) (A) (A) (A) (A) (A) (A)
                 (A) (A) (A) (A) (A) (A) (A) (A) (A) (A) (A) (A)
                 (A) (A) (A) (A) (A) (A) (A) (A) (A) (A) (A) (A)
                 (A) (A) (A) (A) (A) (A) (A) (A) (A) (A) (A) (A)
                 (A) (A) (A) (A) (A) (A) (A) (A) (A) (A) (A) (A)
                 (A) (A) (A) (A) (A) (A) (A) (A) (A) (A) (A) (A)
                 (A) (A) (A) (A) (A) (A) (A) (A) (A) (A) (A) (A)
                 (A) (A) (A) (A) (A) (A) (A) (A) (A) (A) (A) (A)
                 (A) (A) (A) (A) (A) (A) (A) (A) (A) (A) (A) (A)
                 (A) (A) (A) (A) (A) (A) (A) (A) (A) (A) (A) (A)
                 (A) (A) (A) (A) (A) (A) (A) (A) (A) (A) (A) (A)
                 (A) (A) (A) (A) (A) (A) (A) (A)
 The electronic state is 2-A.
 Alpha  occ. eigenvalues --  -89.28823 -89.08214 -19.24729 -19.24261 -19.22628
 Alpha  occ. eigenvalues --  -14.48514 -10.29836 -10.29717 -10.29148 -10.28741
 Alpha  occ. eigenvalues --  -10.26176 -10.24911 -10.23174 -10.22744 -10.22647
 Alpha  occ. eigenvalues --  -10.22465  -8.22138  -8.04457  -6.15859  -6.15818
 Alpha  occ. eigenvalues --   -6.15703  -5.98299  -5.97919  -5.97198  -1.14665
 Alpha  occ. eigenvalues --   -1.13499  -1.04430  -0.93293  -0.85921  -0.84046
 Alpha  occ. eigenvalues --   -0.82280  -0.77270  -0.74918  -0.72044  -0.71212
 Alpha  occ. eigenvalues --   -0.70625  -0.64492  -0.62470  -0.59024  -0.56411
 Alpha  occ. eigenvalues --   -0.53120  -0.51822  -0.51304  -0.50770  -0.50202
 Alpha  occ. eigenvalues --   -0.48483  -0.47416  -0.46379  -0.46164  -0.45207
 Alpha  occ. eigenvalues --   -0.44655  -0.44022  -0.42710  -0.42381  -0.41622
 Alpha  occ. eigenvalues --   -0.40523  -0.40048  -0.39143  -0.38894  -0.36478
 Alpha  occ. eigenvalues --   -0.36399  -0.36127  -0.35733  -0.35644  -0.34601
 Alpha  occ. eigenvalues --   -0.33581  -0.31772  -0.28362  -0.27198  -0.26931
 Alpha  occ. eigenvalues --   -0.20123
 Alpha virt. eigenvalues --   -0.05430  -0.02505   0.00431   0.01047   0.02614
 Alpha virt. eigenvalues --    0.03427   0.03745   0.04536   0.04781   0.05005
 Alpha virt. eigenvalues --    0.05450   0.05832   0.06166   0.06281   0.06847
 Alpha virt. eigenvalues --    0.07846   0.08234   0.08323   0.09008   0.09234
 Alpha virt. eigenvalues --    0.09402   0.09740   0.10273   0.10841   0.10962
 Alpha virt. eigenvalues --    0.11366   0.11879   0.12567   0.13001   0.13685
 Alpha virt. eigenvalues --    0.14031   0.14322   0.14809   0.15135   0.15460
 Alpha virt. eigenvalues --    0.16011   0.16512   0.16574   0.17129   0.17637
 Alpha virt. eigenvalues --    0.18517   0.18754   0.19258   0.19476   0.19688
 Alpha virt. eigenvalues --    0.20049   0.20910   0.21330   0.21849   0.22418
 Alpha virt. eigenvalues --    0.23149   0.23496   0.24205   0.24320   0.25187
 Alpha virt. eigenvalues --    0.25920   0.26298   0.26593   0.27149   0.27614
 Alpha virt. eigenvalues --    0.28009   0.28586   0.28840   0.29360   0.29663
 Alpha virt. eigenvalues --    0.30252   0.30629   0.31408   0.31482   0.32023
 Alpha virt. eigenvalues --    0.32631   0.32965   0.33735   0.34278   0.34981
 Alpha virt. eigenvalues --    0.35606   0.36790   0.37794   0.37885   0.40600
 Alpha virt. eigenvalues --    0.41564   0.42092   0.42222   0.42945   0.44519
 Alpha virt. eigenvalues --    0.46178   0.47318   0.47573   0.48116   0.49896
 Alpha virt. eigenvalues --    0.50595   0.51182   0.51775   0.52079   0.52310
 Alpha virt. eigenvalues --    0.53000   0.53753   0.54370   0.55450   0.56171
 Alpha virt. eigenvalues --    0.56905   0.57447   0.58364   0.59828   0.60289
 Alpha virt. eigenvalues --    0.60553   0.61779   0.62504   0.63298   0.63927
 Alpha virt. eigenvalues --    0.64507   0.65011   0.65507   0.65696   0.66773
 Alpha virt. eigenvalues --    0.68128   0.68396   0.68583   0.70083   0.71024
 Alpha virt. eigenvalues --    0.72101   0.72641   0.72957   0.73337   0.74191
 Alpha virt. eigenvalues --    0.74907   0.75721   0.76464   0.77494   0.78515
 Alpha virt. eigenvalues --    0.78974   0.79599   0.80632   0.81789   0.82367
 Alpha virt. eigenvalues --    0.82837   0.83307   0.83894   0.84737   0.85494
 Alpha virt. eigenvalues --    0.86025   0.86976   0.88044   0.88685   0.88769
 Alpha virt. eigenvalues --    0.89053   0.89701   0.90340   0.91083   0.91811
 Alpha virt. eigenvalues --    0.92127   0.92841   0.94353   0.94999   0.95149
 Alpha virt. eigenvalues --    0.95890   0.97727   0.97793   0.98290   0.99105
 Alpha virt. eigenvalues --    1.00109   1.01508   1.02161   1.03343   1.04086
 Alpha virt. eigenvalues --    1.04831   1.07346   1.08590   1.09040   1.11299
 Alpha virt. eigenvalues --    1.12465   1.14292   1.14967   1.15693   1.17159
 Alpha virt. eigenvalues --    1.18626   1.20184   1.22118   1.22327   1.23584
 Alpha virt. eigenvalues --    1.25669   1.28894   1.30172   1.30707   1.32255
 Alpha virt. eigenvalues --    1.36110   1.37938   1.39552   1.40138   1.41388
 Alpha virt. eigenvalues --    1.44298   1.45200   1.45813   1.48010   1.48835
 Alpha virt. eigenvalues --    1.50017   1.50201   1.50726   1.52895   1.56093
 Alpha virt. eigenvalues --    1.57251   1.59392   1.62687   1.63086   1.63392
 Alpha virt. eigenvalues --    1.65320   1.65649   1.66713   1.68124   1.68544
 Alpha virt. eigenvalues --    1.69175   1.71517   1.72218   1.73104   1.74516
 Alpha virt. eigenvalues --    1.75244   1.76457   1.77895   1.78871   1.79423
 Alpha virt. eigenvalues --    1.79658   1.80099   1.80733   1.82137   1.82543
 Alpha virt. eigenvalues --    1.83985   1.85054   1.85388   1.86214   1.86446
 Alpha virt. eigenvalues --    1.87683   1.89479   1.92211   1.92348   1.93848
 Alpha virt. eigenvalues --    1.95138   1.95933   1.97917   1.98303   1.99418
 Alpha virt. eigenvalues --    1.99859   2.01569   2.03223   2.03872   2.05557
 Alpha virt. eigenvalues --    2.06540   2.07360   2.10184   2.11741   2.13543
 Alpha virt. eigenvalues --    2.14635   2.16155   2.16873   2.24611   2.25643
 Alpha virt. eigenvalues --    2.28075   2.28497   2.30817   2.33136   2.34480
 Alpha virt. eigenvalues --    2.36419   2.38732   2.39428   2.40265   2.40986
 Alpha virt. eigenvalues --    2.42966   2.44738   2.47184   2.48689   2.49615
 Alpha virt. eigenvalues --    2.53800   2.54263   2.55046   2.58080   2.58570
 Alpha virt. eigenvalues --    2.60642   2.63679   2.65207   2.66106   2.67495
 Alpha virt. eigenvalues --    2.70621   2.75553   2.75740   2.76770   2.80416
 Alpha virt. eigenvalues --    2.82524   2.82688   2.83172   2.83196   2.84119
 Alpha virt. eigenvalues --    2.84277   2.85317   2.86330   2.87016   2.87747
 Alpha virt. eigenvalues --    2.88341   2.89634   2.91287   2.92996   2.93539
 Alpha virt. eigenvalues --    2.94399   2.95714   2.96780   2.97999   2.98434
 Alpha virt. eigenvalues --    2.99233   3.02933   3.03608   3.03979   3.06507
 Alpha virt. eigenvalues --    3.08158   3.15628   3.18092   3.19406   3.20388
 Alpha virt. eigenvalues --    3.26185   3.28175   3.29480   3.31126   3.31803
 Alpha virt. eigenvalues --    3.34573   3.35585   3.37179   3.38452   3.40886
 Alpha virt. eigenvalues --    3.42164   3.43529   3.44895   3.47778   3.50103
 Alpha virt. eigenvalues --    3.53496   3.57028   3.60112   3.63393   3.64827
 Alpha virt. eigenvalues --    3.76960   3.94080   4.47053   4.56950   4.62135
 Alpha virt. eigenvalues --    4.64132   4.72272   4.73934   4.74622   4.86605
 Alpha virt. eigenvalues --    4.91284   5.03076   5.44540   5.81681   5.84356
 Alpha virt. eigenvalues --    6.07998  22.21307  22.63221  58.49125  58.49225
 Alpha virt. eigenvalues --   58.50354  58.50617  58.50850  58.55734  58.56170
 Alpha virt. eigenvalues --   58.56245  58.56490  58.56763  95.61910 106.32200
 Alpha virt. eigenvalues --  106.33229 106.39120
  Beta  occ. eigenvalues --  -89.28823 -89.08214 -19.24729 -19.24261 -19.21199
  Beta  occ. eigenvalues --  -14.47320 -10.29838 -10.29717 -10.29213 -10.28806
  Beta  occ. eigenvalues --  -10.26174 -10.24908 -10.23126 -10.22693 -10.22602
  Beta  occ. eigenvalues --  -10.22410  -8.22138  -8.04457  -6.15859  -6.15818
  Beta  occ. eigenvalues --   -6.15703  -5.98299  -5.97918  -5.97198  -1.14665
  Beta  occ. eigenvalues --   -1.10864  -1.04430  -0.92346  -0.85729  -0.83944
  Beta  occ. eigenvalues --   -0.82144  -0.77071  -0.73851  -0.71805  -0.71086
  Beta  occ. eigenvalues --   -0.70156  -0.64439  -0.62341  -0.58644  -0.55898
  Beta  occ. eigenvalues --   -0.53034  -0.51814  -0.51024  -0.50420  -0.48392
  Beta  occ. eigenvalues --   -0.47499  -0.47160  -0.46370  -0.46096  -0.44951
  Beta  occ. eigenvalues --   -0.44303  -0.43890  -0.42500  -0.41587  -0.41126
  Beta  occ. eigenvalues --   -0.40213  -0.40014  -0.38792  -0.37650  -0.36345
  Beta  occ. eigenvalues --   -0.36090  -0.35702  -0.35648  -0.34574  -0.33579
  Beta  occ. eigenvalues --   -0.32735  -0.31769  -0.28270  -0.26744  -0.26005
  Beta virt. eigenvalues --   -0.05432  -0.03772  -0.02459   0.00442   0.01053
  Beta virt. eigenvalues --    0.02634   0.03448   0.03784   0.04570   0.04870
  Beta virt. eigenvalues --    0.05040   0.05477   0.05877   0.06195   0.06311
  Beta virt. eigenvalues --    0.06920   0.07864   0.08274   0.08435   0.09038
  Beta virt. eigenvalues --    0.09324   0.09437   0.09815   0.10322   0.10904
  Beta virt. eigenvalues --    0.10976   0.11404   0.11972   0.12674   0.13094
  Beta virt. eigenvalues --    0.13742   0.14081   0.14373   0.14933   0.15236
  Beta virt. eigenvalues --    0.15694   0.16097   0.16585   0.16889   0.17305
  Beta virt. eigenvalues --    0.17744   0.18560   0.18902   0.19332   0.19754
  Beta virt. eigenvalues --    0.19815   0.20229   0.21005   0.21459   0.21943
  Beta virt. eigenvalues --    0.22515   0.23329   0.23541   0.24342   0.24695
  Beta virt. eigenvalues --    0.25366   0.26080   0.26376   0.26673   0.27193
  Beta virt. eigenvalues --    0.27679   0.28084   0.28740   0.29044   0.29426
  Beta virt. eigenvalues --    0.30023   0.30539   0.30748   0.31532   0.31837
  Beta virt. eigenvalues --    0.32101   0.32765   0.33206   0.33957   0.34339
  Beta virt. eigenvalues --    0.35068   0.35798   0.36820   0.37877   0.37966
  Beta virt. eigenvalues --    0.40628   0.41607   0.42209   0.42604   0.43066
  Beta virt. eigenvalues --    0.44678   0.46236   0.47396   0.47616   0.48174
  Beta virt. eigenvalues --    0.50069   0.50649   0.51395   0.51880   0.52181
  Beta virt. eigenvalues --    0.52379   0.53052   0.53976   0.54399   0.55507
  Beta virt. eigenvalues --    0.56255   0.56967   0.57522   0.58489   0.59997
  Beta virt. eigenvalues --    0.60402   0.60690   0.61831   0.62548   0.63470
  Beta virt. eigenvalues --    0.63999   0.64576   0.65087   0.65636   0.65968
  Beta virt. eigenvalues --    0.66847   0.68200   0.68591   0.68763   0.70291
  Beta virt. eigenvalues --    0.71280   0.72226   0.72752   0.73019   0.73419
  Beta virt. eigenvalues --    0.74395   0.74936   0.75850   0.76535   0.77535
  Beta virt. eigenvalues --    0.78753   0.79007   0.79806   0.80729   0.81985
  Beta virt. eigenvalues --    0.82492   0.82881   0.83369   0.84004   0.84819
  Beta virt. eigenvalues --    0.85542   0.86144   0.87079   0.88068   0.88754
  Beta virt. eigenvalues --    0.88811   0.89093   0.89752   0.90403   0.91149
  Beta virt. eigenvalues --    0.91884   0.92247   0.93128   0.94485   0.95087
  Beta virt. eigenvalues --    0.95233   0.96080   0.97788   0.98114   0.98911
  Beta virt. eigenvalues --    0.99605   1.00419   1.01807   1.02194   1.03446
  Beta virt. eigenvalues --    1.04192   1.04957   1.07406   1.08650   1.09395
  Beta virt. eigenvalues --    1.11621   1.12492   1.14367   1.15042   1.15819
  Beta virt. eigenvalues --    1.17400   1.18864   1.20666   1.22481   1.23033
  Beta virt. eigenvalues --    1.24190   1.26090   1.29315   1.30441   1.31782
  Beta virt. eigenvalues --    1.32523   1.36518   1.38222   1.39595   1.40201
  Beta virt. eigenvalues --    1.41473   1.44324   1.45398   1.46098   1.48328
  Beta virt. eigenvalues --    1.48893   1.50096   1.50252   1.50783   1.52935
  Beta virt. eigenvalues --    1.56276   1.57325   1.59518   1.62703   1.63105
  Beta virt. eigenvalues --    1.63407   1.65706   1.65844   1.67199   1.68227
  Beta virt. eigenvalues --    1.68563   1.69523   1.71629   1.72307   1.73209
  Beta virt. eigenvalues --    1.74590   1.75307   1.76536   1.77982   1.78926
  Beta virt. eigenvalues --    1.79470   1.79739   1.80181   1.80758   1.82215
  Beta virt. eigenvalues --    1.82664   1.84103   1.85098   1.85492   1.86361
  Beta virt. eigenvalues --    1.86585   1.87836   1.89580   1.92479   1.92604
  Beta virt. eigenvalues --    1.93895   1.95147   1.95950   1.98021   1.98478
  Beta virt. eigenvalues --    1.99744   2.00095   2.01945   2.03532   2.04040
  Beta virt. eigenvalues --    2.06148   2.06880   2.07558   2.10451   2.12421
  Beta virt. eigenvalues --    2.13645   2.14882   2.16203   2.17280   2.25339
  Beta virt. eigenvalues --    2.25892   2.28145   2.29691   2.30891   2.33210
  Beta virt. eigenvalues --    2.34642   2.36514   2.38735   2.39431   2.40383
  Beta virt. eigenvalues --    2.41371   2.43230   2.44837   2.47348   2.49209
  Beta virt. eigenvalues --    2.49751   2.53896   2.55222   2.55544   2.58493
  Beta virt. eigenvalues --    2.58742   2.60691   2.63730   2.65339   2.66159
  Beta virt. eigenvalues --    2.68392   2.70812   2.75711   2.75998   2.77050
  Beta virt. eigenvalues --    2.80616   2.82540   2.82738   2.83189   2.84025
  Beta virt. eigenvalues --    2.84212   2.85337   2.86010   2.86925   2.87041
  Beta virt. eigenvalues --    2.87904   2.89501   2.89897   2.91561   2.93060
  Beta virt. eigenvalues --    2.94533   2.94943   2.96335   2.96952   2.98157
  Beta virt. eigenvalues --    2.98499   2.99735   3.03127   3.04091   3.04466
  Beta virt. eigenvalues --    3.06613   3.08266   3.15965   3.19054   3.19559
  Beta virt. eigenvalues --    3.24022   3.26194   3.28178   3.29770   3.31161
  Beta virt. eigenvalues --    3.31918   3.34618   3.35596   3.37228   3.38478
  Beta virt. eigenvalues --    3.40964   3.42219   3.43686   3.44942   3.47877
  Beta virt. eigenvalues --    3.50236   3.53673   3.57053   3.60160   3.63501
  Beta virt. eigenvalues --    3.64852   3.76980   3.95783   4.47124   4.57011
  Beta virt. eigenvalues --    4.62135   4.64250   4.72349   4.74036   4.74726
  Beta virt. eigenvalues --    4.86732   4.91322   5.03078   5.46433   5.81694
  Beta virt. eigenvalues --    5.84358   6.10498  22.21307  22.63221  58.49123
  Beta virt. eigenvalues --   58.49225  58.50339  58.50577  58.50795  58.55777
  Beta virt. eigenvalues --   58.56216  58.56287  58.56538  58.56765  95.62842
  Beta virt. eigenvalues --  106.32202 106.33230 106.40258
          Condensed to atoms (all electrons):
               1          2          3          4          5          6
     1  O    8.666061  -0.012455  -0.090317  -0.001832   0.038492  -0.003607
     2  N   -0.012455   7.371694   0.081951  -0.058647  -0.023288   0.016373
     3  C   -0.090317   0.081951   5.450189   0.245311  -0.111965   0.018509
     4  C   -0.001832  -0.058647   0.245311   5.176602   0.614523  -0.031347
     5  C    0.038492  -0.023288  -0.111965   0.614523   5.425317   0.192130
     6  C   -0.003607   0.016373   0.018509  -0.031347   0.192130   5.224943
     7  S   -0.000773   0.005309   0.000024  -0.002814  -0.133032   0.258874
     8  C   -0.072947   0.053896  -0.137803  -0.065979   0.203184  -0.076759
     9  C   -0.010443  -0.089568   0.006794  -0.002346  -0.070102   0.010091
    10  C   -0.011276  -0.086052   0.017993  -0.011130  -0.073216   0.004326
    11  C   -0.007716  -0.105994   0.306148  -0.041993  -0.005110  -0.002652
    12  C   -0.001228  -0.089849   0.311965  -0.075568  -0.007909  -0.001454
    13  H   -0.000578   0.002647  -0.035243   0.405577  -0.049029  -0.001744
    14  H    0.000072  -0.002589   0.003669   0.024191  -0.084268   0.420390
    15  H    0.000104  -0.002474  -0.000360   0.004781  -0.063037   0.407649
    16  H   -0.001063   0.018023  -0.002851   0.003004  -0.001435  -0.000452
    17  H   -0.000676   0.005486  -0.000394   0.001141  -0.005560   0.002305
    18  H    0.007458  -0.021930   0.001195  -0.000911   0.008290  -0.001027
    19  H    0.008133  -0.027601  -0.001366  -0.001522   0.020502  -0.001459
    20  H   -0.000393   0.005555  -0.000710   0.001391  -0.004149   0.002632
    21  H   -0.000675   0.003918   0.000746   0.001061   0.000638   0.002933
    22  H   -0.000452   0.001704  -0.057868   0.000187   0.008521  -0.000731
    23  H   -0.000338   0.005732  -0.047725   0.002979   0.001088  -0.000042
    24  H    0.006396  -0.024487  -0.032152   0.014793  -0.002553   0.000092
    25  H    0.007988  -0.028993  -0.027821   0.016125  -0.001012   0.000025
    26  H   -0.000909   0.010759  -0.048533  -0.001527  -0.000228  -0.000018
    27  H   -0.000539   0.014131  -0.061992  -0.005296   0.004265  -0.000612
    28  S    0.000002  -0.002444   0.000873  -0.030354  -0.008612  -0.003973
    29  O    0.000016   0.006548  -0.005429   0.028159   0.013263   0.005125
    30  O    0.000098  -0.000023  -0.007572   0.025133   0.022469  -0.023983
    31  C    0.000002   0.000237  -0.000750   0.002727   0.004965  -0.000423
    32  H    0.000000  -0.000010   0.000031  -0.000092  -0.000512   0.000217
    33  H   -0.000000   0.000006   0.000013  -0.000029   0.000141   0.000179
    34  H    0.000000  -0.000003  -0.000020  -0.000433  -0.000036  -0.000399
               7          8          9         10         11         12
     1  O   -0.000773  -0.072947  -0.010443  -0.011276  -0.007716  -0.001228
     2  N    0.005309   0.053896  -0.089568  -0.086052  -0.105994  -0.089849
     3  C    0.000024  -0.137803   0.006794   0.017993   0.306148   0.311965
     4  C   -0.002814  -0.065979  -0.002346  -0.011130  -0.041993  -0.075568
     5  C   -0.133032   0.203184  -0.070102  -0.073216  -0.005110  -0.007909
     6  C    0.258874  -0.076759   0.010091   0.004326  -0.002652  -0.001454
     7  S   15.874019  -0.002013   0.002592  -0.000713  -0.000222   0.000966
     8  C   -0.002013   5.449806   0.326452   0.321562   0.014605   0.022011
     9  C    0.002592   0.326452   5.012038  -0.084923  -0.005227   0.004864
    10  C   -0.000713   0.321562  -0.084923   5.032015   0.005165  -0.006239
    11  C   -0.000222   0.014605  -0.005227   0.005165   5.029640  -0.080630
    12  C    0.000966   0.022011   0.004864  -0.006239  -0.080630   5.023954
    13  H    0.000011   0.012768  -0.000911  -0.001552  -0.001009   0.003173
    14  H   -0.041751   0.003072  -0.000015  -0.001844  -0.000197  -0.000048
    15  H   -0.042240   0.007928  -0.001072   0.005882   0.000303  -0.000059
    16  H    0.000547  -0.065577   0.412801   0.009214   0.000138  -0.001290
    17  H    0.000908  -0.033524   0.398859  -0.004231   0.000164  -0.000169
    18  H    0.000236  -0.035389   0.411457  -0.004203   0.000021  -0.000272
    19  H    0.000099  -0.040637  -0.002379   0.416665  -0.000108   0.000032
    20  H   -0.000412  -0.038620  -0.003753   0.401907  -0.000063   0.000135
    21  H   -0.000942  -0.056730   0.008460   0.409614  -0.001073  -0.000043
    22  H    0.000000  -0.002462   0.000094  -0.001301   0.412137   0.008617
    23  H    0.000004  -0.001009   0.000125  -0.000059   0.406611  -0.002445
    24  H   -0.000014   0.000948  -0.000115  -0.000088   0.412240  -0.003846
    25  H   -0.000049  -0.002957  -0.000176   0.000083  -0.004247   0.409057
    26  H   -0.000004  -0.001043  -0.000147   0.000206  -0.002518   0.406044
    27  H   -0.000008   0.000213  -0.001291   0.000067   0.009060   0.412027
    28  S    0.310456   0.004623  -0.003816  -0.000177  -0.000696   0.002318
    29  O   -0.074576  -0.009606  -0.000572   0.000152   0.000248  -0.007131
    30  O   -0.082466  -0.004567   0.000750   0.000031   0.001009   0.000689
    31  C   -0.052754  -0.001295   0.000267   0.000051   0.000050  -0.000217
    32  H   -0.000821   0.000153  -0.000075  -0.000002  -0.000000  -0.000008
    33  H    0.001569  -0.000040  -0.000001   0.000001  -0.000000  -0.000006
    34  H    0.002406   0.000122   0.000001  -0.000001  -0.000000   0.000010
              13         14         15         16         17         18
     1  O   -0.000578   0.000072   0.000104  -0.001063  -0.000676   0.007458
     2  N    0.002647  -0.002589  -0.002474   0.018023   0.005486  -0.021930
     3  C   -0.035243   0.003669  -0.000360  -0.002851  -0.000394   0.001195
     4  C    0.405577   0.024191   0.004781   0.003004   0.001141  -0.000911
     5  C   -0.049029  -0.084268  -0.063037  -0.001435  -0.005560   0.008290
     6  C   -0.001744   0.420390   0.407649  -0.000452   0.002305  -0.001027
     7  S    0.000011  -0.041751  -0.042240   0.000547   0.000908   0.000236
     8  C    0.012768   0.003072   0.007928  -0.065577  -0.033524  -0.035389
     9  C   -0.000911  -0.000015  -0.001072   0.412801   0.398859   0.411457
    10  C   -0.001552  -0.001844   0.005882   0.009214  -0.004231  -0.004203
    11  C   -0.001009  -0.000197   0.000303   0.000138   0.000164   0.000021
    12  C    0.003173  -0.000048  -0.000059  -0.001290  -0.000169  -0.000272
    13  H    0.508791   0.002250  -0.000015  -0.000031  -0.000001   0.000004
    14  H    0.002250   0.490501  -0.014283  -0.000040  -0.000016   0.000001
    15  H   -0.000015  -0.014283   0.530539   0.000092  -0.000053   0.000013
    16  H   -0.000031  -0.000040   0.000092   0.537165  -0.019868  -0.015395
    17  H   -0.000001  -0.000016  -0.000053  -0.019868   0.566183  -0.020835
    18  H    0.000004   0.000001   0.000013  -0.015395  -0.020835   0.528549
    19  H    0.000005   0.000004  -0.000034  -0.000013  -0.000259   0.001893
    20  H    0.000002   0.000014  -0.000140   0.000081   0.001213  -0.000160
    21  H   -0.000019   0.000002  -0.000190  -0.000139   0.000085   0.000036
    22  H    0.000156   0.000004   0.000001  -0.000001  -0.000000  -0.000000
    23  H    0.000579   0.000001   0.000000   0.000000  -0.000000   0.000000
    24  H    0.000002   0.000000  -0.000000  -0.000000   0.000000  -0.000002
    25  H   -0.000031  -0.000000   0.000000   0.000006   0.000000  -0.000007
    26  H    0.000107  -0.000001   0.000000   0.000007  -0.000000  -0.000000
    27  H   -0.000184  -0.000002   0.000000   0.000234   0.000009  -0.000000
    28  S    0.003006  -0.013324   0.003094  -0.000953  -0.000911   0.000351
    29  O   -0.000327   0.000951  -0.000800  -0.000025   0.000162   0.000006
    30  O   -0.000838   0.011310  -0.001304   0.000082   0.000025  -0.000010
    31  C   -0.000099   0.000424  -0.000077   0.000035   0.000046  -0.000002
    32  H    0.000000   0.000005  -0.000000  -0.000000  -0.000000   0.000000
    33  H    0.000000  -0.000011   0.000000   0.000000   0.000000  -0.000000
    34  H    0.000001   0.000028  -0.000000  -0.000000  -0.000000   0.000000
              19         20         21         22         23         24
     1  O    0.008133  -0.000393  -0.000675  -0.000452  -0.000338   0.006396
     2  N   -0.027601   0.005555   0.003918   0.001704   0.005732  -0.024487
     3  C   -0.001366  -0.000710   0.000746  -0.057868  -0.047725  -0.032152
     4  C   -0.001522   0.001391   0.001061   0.000187   0.002979   0.014793
[...]
    10  C    0.038711   0.022557
    11  C    0.043814   0.021263
    12  C    0.055535   0.021955
    28  S    0.891344  -0.000074
    29  O   -0.510728   0.000025
    30  O   -0.570730   0.000049
    31  C    0.150956  -0.000004
 Electronic spatial extent (au):  <R**2>=           4773.0947
 Charge=             -0.0000 electrons
 Dipole moment (field-independent basis, Debye):
    X=              4.2505    Y=              1.8572    Z=             -2.0473  Tot=              5.0702
 Quadrupole moment (field-independent basis, Debye-Ang):
   XX=           -108.2528   YY=           -109.0644   ZZ=           -115.9241
   XY=              5.7167   XZ=              6.3622   YZ=             -0.6189
 Traceless Quadrupole moment (field-independent basis, Debye-Ang):
   XX=              2.8276   YY=              2.0160   ZZ=             -4.8436
   XY=              5.7167   XZ=              6.3622   YZ=             -0.6189
 Octapole moment (field-independent basis, Debye-Ang**2):
  XXX=            190.1730  YYY=             -3.8193  ZZZ=              0.3933  XYY=            -14.2307
  XXY=             -7.8665  XXZ=             -8.3353  XZZ=             -0.9689  YZZ=              6.0405
  YYZ=             -2.3264  XYZ=              0.5322
 Hexadecapole moment (field-independent basis, Debye-Ang**3):
 XXXX=          -3990.7225 YYYY=          -1374.4105 ZZZZ=           -668.5254 XXXY=            -14.0605
 XXXZ=            120.3875 YYYX=            -15.6027 YYYZ=              0.8544 ZZZX=            -12.0065
 ZZZY=             -1.8413 XXYY=           -937.8523 XXZZ=           -855.6035 YYZZ=           -347.8274
 XXYZ=             -4.2890 YYXZ=             -4.4245 ZZXY=             14.8538
 N-N= 1.520747002537D+03 E-N=-6.496878067892D+03  KE= 1.459875469511D+03
                          Isotropic Fermi Contact Couplings
        Atom                 a.u.       MegaHertz       Gauss      10(-4) cm-1
     1  O(17)              0.08648     -52.42123     -18.70520     -17.48584
     2  N(14)              0.10699      34.56987      12.33539      11.53127
     3  C(13)             -0.01481     -16.64402      -5.93900      -5.55185
     4  C(13)              0.00027       0.29836       0.10646       0.09952
     5  C(13)             -0.00032      -0.36030      -0.12856      -0.12018
     6  C(13)             -0.00055      -0.62106      -0.22161      -0.20716
     7  S(33)              0.00001       0.00263       0.00094       0.00088
     8  C(13)             -0.01475     -16.58673      -5.91856      -5.53274
     9  C(13)              0.01737      19.52160       6.96579       6.51171
    10  C(13)              0.01322      14.86507       5.30423       4.95845
    11  C(13)              0.01199      13.48127       4.81045       4.49687
    12  C(13)              0.01846      20.75634       7.40638       6.92357
    13  H(1)              -0.00027      -1.20246      -0.42907      -0.40110
    14  H(1)              -0.00003      -0.15498      -0.05530      -0.05170
    15  H(1)               0.00006       0.25189       0.08988       0.08402
    16  H(1)              -0.00033      -1.47755      -0.52723      -0.49286
    17  H(1)               0.00044       1.95715       0.69836       0.65283
    18  H(1)              -0.00050      -2.24050      -0.79947      -0.74735
    19  H(1)              -0.00051      -2.28589      -0.81566      -0.76249
    20  H(1)               0.00022       0.99167       0.35385       0.33078
    21  H(1)              -0.00039      -1.75715      -0.62699      -0.58612
    22  H(1)              -0.00039      -1.73636      -0.61958      -0.57919
    23  H(1)               0.00017       0.75747       0.27028       0.25266
    24  H(1)              -0.00048      -2.12887      -0.75963      -0.71011
    25  H(1)              -0.00049      -2.18440      -0.77945      -0.72864
    26  H(1)               0.00049       2.19160       0.78202       0.73104
    27  H(1)              -0.00034      -1.50789      -0.53805      -0.50298
    28  S(33)             -0.00001      -0.00465      -0.00166      -0.00155
    29  O(17)             -0.00001       0.00497       0.00177       0.00166
    30  O(17)             -0.00001       0.00819       0.00292       0.00273
    31  C(13)              0.00001       0.01375       0.00491       0.00459
    32  H(1)              -0.00000      -0.00052      -0.00019      -0.00017
    33  H(1)               0.00000       0.00663       0.00237       0.00221
    34  H(1)               0.00000       0.00036       0.00013       0.00012
 --------------------------------------------------------
       Center         ----  Spin Dipole Couplings  ----
                      3XX-RR        3YY-RR        3ZZ-RR
 --------------------------------------------------------
     1   Atom       -0.609617     -0.910243      1.519860
     2   Atom       -0.309905     -0.568717      0.878622
     3   Atom       -0.007593      0.010333     -0.002741
     4   Atom        0.007026     -0.005533     -0.001493
     5   Atom        0.009675     -0.006906     -0.002769
     6   Atom        0.002031     -0.001302     -0.000728
     7   Atom        0.003331     -0.001500     -0.001831
     8   Atom        0.000195      0.005550     -0.005744
     9   Atom       -0.010531      0.002115      0.008415
    10   Atom       -0.007052      0.017108     -0.010056
    11   Atom        0.002358      0.000323     -0.002681
    12   Atom       -0.016622      0.018697     -0.002075
    13   Atom        0.001619     -0.001181     -0.000438
    14   Atom        0.001409     -0.001230     -0.000179
    15   Atom        0.001142     -0.000671     -0.000471
    16   Atom        0.003456     -0.003305     -0.000151
    17   Atom        0.000391      0.002170     -0.002561
    18   Atom       -0.002319      0.003948     -0.001629
    19   Atom       -0.005001      0.010380     -0.005380
    20   Atom       -0.001158      0.003913     -0.002755
    21   Atom       -0.005361      0.000414      0.004946
    22   Atom       -0.005163     -0.002175      0.007339
    23   Atom       -0.002541      0.003485     -0.000944
    24   Atom       -0.002464      0.005203     -0.002739
    25   Atom       -0.004367      0.008640     -0.004273
    26   Atom       -0.002637      0.005265     -0.002628
    27   Atom        0.000102      0.001756     -0.001858
    28   Atom        0.001437     -0.000737     -0.000700
    29   Atom        0.001509     -0.000709     -0.000800
    30   Atom        0.001122     -0.000623     -0.000499
    31   Atom        0.000678     -0.000336     -0.000342
    32   Atom        0.000630     -0.000314     -0.000316
    33   Atom        0.000525     -0.000252     -0.000273
    34   Atom        0.000554     -0.000287     -0.000267
 --------------------------------------------------------
                        XY            XZ            YZ
 --------------------------------------------------------
     1   Atom       -0.192853      1.084976     -0.482144
     2   Atom       -0.132305      0.669690     -0.289989
     3   Atom       -0.006752     -0.002418      0.008177
     4   Atom       -0.006246     -0.006269      0.003638
     5   Atom        0.002142     -0.006899     -0.001848
     6   Atom        0.000895     -0.001832     -0.000419
     7   Atom        0.001535      0.000560      0.000376
     8   Atom        0.011998     -0.002951     -0.004358
     9   Atom        0.010710      0.008615      0.021904
    10   Atom       -0.012688      0.005449     -0.018084
    11   Atom        0.014153      0.014109      0.017241
    12   Atom       -0.005259      0.000981     -0.022560
    13   Atom       -0.002611     -0.002932      0.001931
    14   Atom        0.000294     -0.001659     -0.000238
    15   Atom        0.001535     -0.001639     -0.000962
    16   Atom        0.003885      0.007375      0.001990
    17   Atom        0.005134      0.000607      0.001030
    18   Atom        0.004952      0.002148      0.008035
    19   Atom       -0.000931     -0.001366     -0.005572
    20   Atom        0.003172     -0.000999     -0.003335
    21   Atom        0.000773      0.000217     -0.007279
    22   Atom        0.000793      0.002956      0.005490
    23   Atom       -0.000841      0.000008      0.004775
    24   Atom        0.005345      0.001721      0.007392
    25   Atom       -0.001230     -0.001164     -0.005698
    26   Atom       -0.003464     -0.000569      0.000603
    27   Atom       -0.006285      0.005195     -0.004012
    28   Atom       -0.000187     -0.000196      0.000030
    29   Atom       -0.000546      0.000327     -0.000077
    30   Atom       -0.000337     -0.000567      0.000141
    31   Atom       -0.000040     -0.000053      0.000002
    32   Atom        0.000043      0.000066      0.000003
    33   Atom       -0.000121     -0.000025      0.000004
    34   Atom        0.000025     -0.000141     -0.000004
 --------------------------------------------------------


 ---------------------------------------------------------------------------------
              Anisotropic Spin Dipole Couplings in Principal Axis System
 ---------------------------------------------------------------------------------

       Atom             a.u.   MegaHertz   Gauss  10(-4) cm-1        Axes

              Baa    -1.0662    77.147    27.528    25.734  0.9056 -0.1293 -0.4040
     1 O(17)  Bbb    -0.9997    72.336    25.811    24.129  0.1870  0.9766  0.1064
              Bcc     2.0658  -149.483   -53.339   -49.862  0.3808 -0.1719  0.9085
 
              Baa    -0.6252   -24.113    -8.604    -8.043  0.1811  0.9775  0.1078
     2 N(14)  Bbb    -0.6108   -23.556    -8.405    -7.857  0.8967 -0.1191 -0.4264
              Bcc     1.2360    47.669    17.010    15.901  0.4039 -0.1739  0.8981
 
              Baa    -0.0099    -1.325    -0.473    -0.442  0.9359  0.3438 -0.0768
     3 C(13)  Bbb    -0.0065    -0.874    -0.312    -0.292  0.2066 -0.3590  0.9102
              Bcc     0.0164     2.199     0.785     0.734 -0.2854  0.8677  0.4070
 
              Baa    -0.0083    -1.120    -0.400    -0.374  0.2816  0.9301 -0.2360
     4 C(13)  Bbb    -0.0048    -0.643    -0.229    -0.215  0.4959  0.0695  0.8656
              Bcc     0.0131     1.763     0.629     0.588  0.8214 -0.3608 -0.4416
 
              Baa    -0.0076    -1.025    -0.366    -0.342  0.0572  0.9038  0.4242
     5 C(13)  Bbb    -0.0055    -0.734    -0.262    -0.245  0.4257 -0.4064  0.8085
              Bcc     0.0131     1.759     0.628     0.587  0.9031  0.1343 -0.4080
 
              Baa    -0.0016    -0.221    -0.079    -0.074  0.4742 -0.1871  0.8603
     6 C(13)  Bbb    -0.0015    -0.203    -0.073    -0.068 -0.1045  0.9583  0.2660
              Bcc     0.0032     0.424     0.151     0.142  0.8742  0.2160 -0.4349
 
              Baa    -0.0021    -0.087    -0.031    -0.029 -0.1378  0.7332 -0.6659
     7 S(33)  Bbb    -0.0017    -0.071    -0.025    -0.024 -0.2699  0.6191  0.7375
              Bcc     0.0039     0.158     0.056     0.053  0.9530  0.2813  0.1126
 
              Baa    -0.0095    -1.273    -0.454    -0.425  0.7489 -0.6434 -0.1587
     8 C(13)  Bbb    -0.0069    -0.928    -0.331    -0.310  0.2692  0.0765  0.9600
              Bcc     0.0164     2.202     0.786     0.734  0.6056  0.7617 -0.2305
 
              Baa    -0.0184    -2.471    -0.882    -0.824 -0.5271  0.7333 -0.4295
     9 C(13)  Bbb    -0.0133    -1.788    -0.638    -0.596  0.7930  0.2427 -0.5588
              Bcc     0.0317     4.259     1.520     1.420  0.3055  0.6351  0.7094
 
              Baa    -0.0192    -2.572    -0.918    -0.858  0.0998  0.4717  0.8761
    10 C(13)  Bbb    -0.0120    -1.604    -0.572    -0.535  0.9352  0.2562 -0.2445
              Bcc     0.0311     4.176     1.490     1.393 -0.3397  0.8438 -0.4155
 
              Baa    -0.0186    -2.490    -0.889    -0.831 -0.0883 -0.6347  0.7677
    11 C(13)  Bbb    -0.0118    -1.585    -0.565    -0.529  0.8094 -0.4950 -0.3162
              Bcc     0.0304     4.075     1.454     1.359  0.5806  0.5934  0.5574
 
              Baa    -0.0188    -2.528    -0.902    -0.843  0.7531  0.4132  0.5120
    12 C(13)  Bbb    -0.0148    -1.985    -0.708    -0.662 -0.6505  0.3514  0.6733
              Bcc     0.0336     4.514     1.611     1.506 -0.0983  0.8401 -0.5334
 
              Baa    -0.0028    -1.502    -0.536    -0.501  0.2459  0.8782 -0.4103
    13 H(1)   Bbb    -0.0025    -1.337    -0.477    -0.446  0.6403  0.1706  0.7489
              Bcc     0.0053     2.838     1.013     0.947  0.7277 -0.4469 -0.5204
 
              Baa    -0.0013    -0.691    -0.247    -0.231  0.2100  0.8449  0.4920
    14 H(1)   Bbb    -0.0012    -0.639    -0.228    -0.213  0.4984 -0.5254  0.6896
              Bcc     0.0025     1.330     0.475     0.444  0.8411  0.1004 -0.5315
 
              Baa    -0.0016    -0.829    -0.296    -0.277 -0.3316  0.8964  0.2940
    15 H(1)   Bbb    -0.0015    -0.795    -0.284    -0.265  0.5550 -0.0666  0.8292
              Bcc     0.0030     1.625     0.580     0.542  0.7629  0.4381 -0.4755
 
              Baa    -0.0063    -3.371    -1.203    -1.125  0.6475 -0.4110 -0.6417
    16 H(1)   Bbb    -0.0043    -2.270    -0.810    -0.757  0.0477  0.8623 -0.5041
              Bcc     0.0106     5.641     2.013     1.882  0.7605  0.2958  0.5780
 
              Baa    -0.0040    -2.113    -0.754    -0.705  0.7445 -0.6494  0.1546
    17 H(1)   Bbb    -0.0027    -1.431    -0.510    -0.477 -0.2001  0.0039  0.9798
              Bcc     0.0066     3.544     1.265     1.182  0.6369  0.7604  0.1271
 
              Baa    -0.0077    -4.097    -1.462    -1.367  0.2849 -0.6241  0.7276
    18 H(1)   Bbb    -0.0040    -2.128    -0.759    -0.710  0.8906 -0.1084 -0.4417
              Bcc     0.0117     6.225     2.221     2.076  0.3546  0.7738  0.5249
 
              Baa    -0.0080    -4.264    -1.522    -1.422  0.4692  0.2780  0.8382
    19 H(1)   Bbb    -0.0042    -2.226    -0.794    -0.743  0.8827 -0.1177 -0.4550
              Bcc     0.0122     6.490     2.316     2.165 -0.0278  0.9533 -0.3006
 
              Baa    -0.0042    -2.231    -0.796    -0.744 -0.1537  0.4273  0.8910
    20 H(1)   Bbb    -0.0025    -1.340    -0.478    -0.447  0.9083 -0.2939  0.2976
              Bcc     0.0067     3.571     1.274     1.191  0.3890  0.8550 -0.3429
 
              Baa    -0.0059    -3.167    -1.130    -1.056  0.7970 -0.4945 -0.3467
    21 H(1)   Bbb    -0.0044    -2.334    -0.833    -0.778  0.6037  0.6351  0.4819
              Bcc     0.0103     5.500     1.963     1.835 -0.0182 -0.5934  0.8047
 
              Baa    -0.0059    -3.171    -1.132    -1.058  0.9137  0.2613 -0.3113
    22 H(1)   Bbb    -0.0045    -2.394    -0.854    -0.799 -0.3592  0.8775 -0.3176
              Bcc     0.0104     5.565     1.986     1.856  0.1902  0.4020  0.8957
 
              Baa    -0.0041    -2.204    -0.786    -0.735 -0.2854 -0.5316  0.7975
    23 H(1)   Bbb    -0.0025    -1.312    -0.468    -0.438  0.9553 -0.0909  0.2813
              Bcc     0.0066     3.515     1.254     1.173 -0.0771  0.8421  0.5338
 
              Baa    -0.0076    -4.069    -1.452    -1.357  0.3443 -0.5723  0.7443
    24 H(1)   Bbb    -0.0041    -2.196    -0.784    -0.733  0.8666 -0.1112 -0.4864
              Bcc     0.0117     6.265     2.236     2.090  0.3611  0.8125  0.4577
 
              Baa    -0.0072    -3.865    -1.379    -1.289  0.4720  0.3298  0.8176
    25 H(1)   Bbb    -0.0036    -1.914    -0.683    -0.638  0.8803 -0.1248 -0.4578
              Bcc     0.0108     5.779     2.062     1.928 -0.0490  0.9358 -0.3492
 
              Baa    -0.0040    -2.143    -0.765    -0.715  0.9159  0.3266  0.2335
    26 H(1)   Bbb    -0.0026    -1.395    -0.498    -0.465 -0.1907 -0.1580  0.9689
              Bcc     0.0066     3.538     1.263     1.180 -0.3533  0.9319  0.0824
 
              Baa    -0.0064    -3.434    -1.225    -1.145  0.7467  0.2766 -0.6050
    27 H(1)   Bbb    -0.0042    -2.233    -0.797    -0.745  0.2611  0.7146  0.6490
              Bcc     0.0106     5.667     2.022     1.890 -0.6118  0.6426 -0.4613
 
              Baa    -0.0008    -0.031    -0.011    -0.010  0.0520  0.9466 -0.3182
    28 S(33)  Bbb    -0.0007    -0.029    -0.010    -0.010  0.1131  0.3110  0.9436
              Bcc     0.0015     0.060     0.022     0.020  0.9922 -0.0851 -0.0909
 
              Baa    -0.0008     0.061     0.022     0.020 -0.1150  0.0968  0.9886
    29 O(17)  Bbb    -0.0008     0.061     0.022     0.020  0.2352  0.9696 -0.0675
              Bcc     0.0017    -0.122    -0.043    -0.041  0.9651 -0.2247  0.1343
 
              Baa    -0.0007     0.052     0.019     0.017 -0.0635  0.7538 -0.6541
    30 O(17)  Bbb    -0.0007     0.047     0.017     0.016  0.3424  0.6321  0.6952
              Bcc     0.0014    -0.099    -0.035    -0.033  0.9374 -0.1798 -0.2983
 
              Baa    -0.0003    -0.046    -0.017    -0.015  0.0541  0.0710  0.9960
    31 C(13)  Bbb    -0.0003    -0.045    -0.016    -0.015  0.0354  0.9967 -0.0730
              Bcc     0.0007     0.092     0.033     0.031  0.9979 -0.0392 -0.0514
 
              Baa    -0.0003    -0.171    -0.061    -0.057 -0.0704  0.0275  0.9971
    32 H(1)   Bbb    -0.0003    -0.169    -0.060    -0.056 -0.0429  0.9986 -0.0306
              Bcc     0.0006     0.339     0.121     0.113  0.9966  0.0449  0.0692
 
              Baa    -0.0003    -0.146    -0.052    -0.049  0.0345  0.0172  0.9993
    33 H(1)   Bbb    -0.0003    -0.144    -0.051    -0.048  0.1496  0.9885 -0.0222
              Bcc     0.0005     0.290     0.104     0.097  0.9881 -0.1503 -0.0316
 
              Baa    -0.0003    -0.155    -0.055    -0.052  0.1670 -0.1286  0.9775
    34 H(1)   Bbb    -0.0003    -0.153    -0.055    -0.051 -0.0075  0.9913  0.1317
              Bcc     0.0006     0.308     0.110     0.103  0.9859  0.0293 -0.1646
 

 ---------------------------------------------------------------------------------

 No NMR shielding tensors so no spin-rotation constants.
 Leave Link  601 at Mon Jun 17 21:30:44 2019, MaxMem=  8053063680 cpu:               0.0 elap:               0.3
 (Enter /data2/g16/g16/l9999.exe)
 1\1\GINC-CU05\SP\UPBE1PBE\Gen\C10H18N1O3S2(2)\ROOT\17-Jun-2019\0\\#p g
 en 6d pbe1pbe\\start preoptimized\\0,2\O,0,-3.763382,0.207049,0.870701
 \N,0,-2.607731,0.034869,0.382621\C,0,-2.160633,-1.267829,-0.156432\C,0
 ,-0.881483,-0.849992,-0.820739\C,0,-0.606004,0.449174,-0.658388\C,0,0.
 604845,1.125676,-1.199288\S,0,1.942267,1.440961,0.033285\C,0,-1.691906
 ,1.165435,0.116041\C,0,-1.233336,1.76551,1.448911\C,0,-2.425499,2.2188
 54,-0.718214\C,0,-3.212501,-1.808344,-1.12868\C,0,-1.917442,-2.258864,
 0.986931\H,0,-0.241633,-1.559274,-1.339013\H,0,1.061489,0.539549,-2.00
 3542\H,0,0.388648,2.129595,-1.583368\H,0,-0.663615,1.03794,2.036319\H,
 0,-0.603383,2.646865,1.290361\H,0,-2.117828,2.070191,2.019522\H,0,-3.3
 17392,2.544135,-0.176046\H,0,-1.787485,3.09313,-0.890669\H,0,-2.734398
 ,1.809268,-1.686386\H,0,-3.370285,-1.116558,-1.960764\H,0,-2.896584,-2
 .774533,-1.531576\H,0,-4.162369,-1.939048,-0.597838\H,0,-2.845751,-2.4
 05614,1.55097\H,0,-1.591577,-3.226013,0.590368\H,0,-1.142809,-1.88685,
 1.667799\S,0,2.758723,-0.534788,0.110176\O,0,2.336832,-1.21309,1.35302
 4\O,0,2.508039,-1.183562,-1.203659\C,0,4.510088,-0.16878,0.247746\H,0,
 4.659752,0.448618,1.134087\H,0,4.999213,-1.139587,0.364106\H,0,4.83039
 8,0.334314,-0.666095\\Version=AM64L-G16RevB.01\State=2-A\HF=-1467.5483
 974\S2=0.755021\S2-1=0.\S2A=0.750017\RMSD=8.895e-09\Dipole=1.6760452,0
 .727491,-0.80044\Quadrupole=2.0969606,1.4800553,-3.5770159,4.2460025,4
 .7475954,-0.4555898\PG=C01 [X(C10H18N1O3S2)]\\@


 WERE I TO AWAIT PERFECTION, MY BOOK WOULD NEVER BE FINISHED.
                                    -- HISTORY OF CHINESE WRITING

                                       TAI T'UNG, 13TH CENTURY
 Elapsed time:       0 days  0 hours  2 minutes 41.0 seconds.
 File lengths (MBytes):  RWF=    181 Int=      0 D2E=      0 Chk=     15 Scr=      1
 Normal termination of Gaussian 16 at Mon Jun 17 21:30:45 2019.
