 Entering Gaussian System, Link 0=g16
 AtFile(1): /home/malgo/Basis_sets/n07d_pbe0.gbs
            -H 0
             6-31G
             S   1 1.00       0.000000000000
                  0.4000000000D+00  0.10000000D+01
             P   1 1.00       0.000000000000
                  0.7500000000D+00  0.10000000D+01
             ****
             -He 0
             6-31+G**
             ****
             -Li 0
             6-31+G**
             ****
             -Be 0
             6-31+G**
             ****
             -B 0
             6-31G
             S   1 1.00       0.000000000000
                  0.7000000000D+01  0.1000000000D+01
             P   1 1.00       0.000000000000
                  0.3500000000D-01  0.1000000000D+01
             D   1 1.00
                  0.3430000000D+00  0.1000000000D+01
             ****
             -C 0
             6-31G
             S   1 1.00       0.000000000000
                  0.8700000000D+01  0.1000000000D+01
             P   1 1.00       0.000000000000
                  0.5000000000D-01  0.1000000000D+01
             D   1 1.00
                  0.8200000000D+00  0.1000000000D+01
             ****
             -N 0
             6-31G
             S   1 1.00       0.000000000000
                  0.1370000000D+02  0.1000000000D+01
             P   1 1.00       0.000000000000
                  0.5300000000D-01  0.1000000000D+01
             D   1 1.00       0.000000000000
                  0.1015000000D+01  0.1000000000D+01
             ****
             -O 0
             6-31G
             S   1 1.00
                  0.1600000000D+02  0.1000000000D+01
             P   1 1.00       0.000000000000
                  0.6500000000D-01  0.1000000000D+01
             D   1 1.00        0.000000000000
                  0.1190000000D+01  0.1000000000D+01
             D   1 1.00        0.000000000000
                  0.1800000000D+00  0.1000000000D+01
             ****
             -F 0
             6-31G
             S   1 1.00
                  0.1770000000D+02  0.1000000000D+01
             P   1 1.00       0.000000000000
                  0.8300000000D-01  0.1000000000D+01
             D   1 1.00       0.000000000000
                  1.3700000000D+00  0.1000000000D+01
             D   1 1.00       0.000000000000
                  0.2300000000D+00  0.1000000000D+01
             ****
             -Ne 0
             6-31+G**
             ****
             -Na 0
             6-31+G**
             ****
             -Mg 0
             6-31+G**
             ****
             -Al 0
             6-31G
             S   1 1.00      0.000000000000
                  0.3100000000D+01  0.1000000000D+01
             P   1 1.00      0.000000000000
                  0.1500000000D-01  0.1000000000D+01
             D   1 1.00      0.000000000000
                  0.1890000000D+00  0.1000000000D+01
             ****
             -Si 0
             6-31G
             S   1 1.00      0.000000000000
                  0.5000000000D+01  0.1000000000D+01
             P   1 1.00       0.000000000000
                  0.3300000000D-01  0.1000000000D+01
             D   1 1.0        0.000000000000
                  0.2750000000D+00  0.1000000000D+01
             ****
             -P  0
             6-31G
             S   1 1.00       0.000000000000
                  0.6300000000D+01  0.1000000000D+01
             P   1 1.00       0.000000000000
                  0.3500000000D-01  0.1000000000D+01
             D   1 1.00       0.000000000000
                  0.3730000000D+00  0.1000000000D+01
             ****
             -S  0
             6-31G
             S   1  1.00      0.000000000000
                  0.7500000000D+01  0.1000000000D+01
             P   1 1.00       0.000000000000
                  0.4100000000D-01  0.1000000000D+01
             D   1 1.00       0.000000000000
                  0.4790000000D+00  0.1000000000D+01
             ****
            -Cl 0
             6-31G
             S   1 1.00       0.000000000000
                  0.8500000000D+01  0.1000000000D+01
             P   1 1.00       0.000000000000
                  0.4800000000D-01  0.1000000000D+01
             D   1 1.00       0.000000000000
                  0.6000000000D+00  0.1000000000D+01
             D   1 1.00       0.000000000000
                  0.1960000000D+00  0.1000000000D+01
             ****
            -Br 0
             S   3 1.00       0.000000000000
                  0.4721881000D+01  0.1749732514D+00
                  0.2257555000D+01 -0.7074172290D+00
                  0.3896080000D+00  0.1258999543D+01
             S   1 1.00       0.000000000000
                  0.1471340000D+00  0.1000000000D+01
             P   3 1.00       0.000000000000
                  0.1896942000D+01 -0.2464576731D+00
                  0.9108990000D+00  0.3623179892D+00
                  0.3168550000D+00  0.8338469725D+00
             P   1 1.00       0.000000000000
                  0.1095030000D+00  0.1000000000D+01
             P   1 1.00       0.000000000000
                  0.3609700000D-01  0.1000000000D+01
             D   1 1.00
                  0.4750000000D+00  0.1000000000D+01
             D   1 1.00
                  0.1280000000D+00  0.1000000000D+01
             ****
            -I   0
             S   3 1.00       0.000000000000
                  0.2122765000D+01  0.2063429899D+01
                  0.1770481000D+01 -0.2869526473D+01
                  0.3130840000D+00  0.1404747074D+01
             S   1 1.00       0.000000000000
                  0.1320000000D+00  0.1000000000D+01
             P   3 1.00       0.000000000000
                  0.2432887000D+01  0.7732753148D+00
                  0.2137249000D+01 -0.1020833156D+01
                  0.3145460000D+00  0.1095666871D+01
             P   1 1.00       0.000000000000
                  0.1049450000D+00  0.1000000000D+01
             P   1 1.00       0.000000000000
                  0.3264100000D-01  0.1000000000D+01
             D   1 1.00
                  0.300000000          1.00000000
             D   1 1.00
                  0.090000000          1.00000000
             ****
             -Zn 0
             SP   6 1.00       0.000000000000
                  0.6936492000D+02 -0.4440098182D-02 -0.7689261805D-02
                  0.2362082000D+02  0.7505253308D-01 -0.2997981924D-01
                  0.1018471000D+02  0.2533111104D+00  0.7082410821D-01
                  0.4334082000D+01 -0.2881897118D+00  0.4046140897D+00
                  0.1810918000D+01 -0.7267052298D+00  0.4882324876D+00
                  0.7148410000D+00 -0.2133439088D+00  0.1751969956D+00
             SP   3 1.00       0.000000000000
                  0.2823842000D+01  0.4898545031D-01 -0.1586762981D+00
                  0.1039543000D+01  0.2592794075D+00  0.8379326898D-01
                  0.1432640000D+00 -0.1115711463D+01  0.9840546881D+00
             SP   1 1.00       0.000000000000
                  0.4929600000D-01  0.1000000000D+01  0.1000000000D+01
             S    1 1.00       0.000000000000
                  0.1620000000D+00  0.1000000000D+01
             D    3 1.00       0.000000000000
                  0.3370764000D+02  0.9262647815D-01
                  0.9061106000D+01  0.4002979920D+00
                  0.2738383000D+01  0.6896607863D+00
             D    1 1.00
                  0.2440000000D+01  0.1000000000D+01
             D    1 1.00       0.000000000000
                  0.7302940000D+00  0.1000000000D+01
             D    1 1.00       0.000000000000
                  0.1620000000D+00  0.1000000000D+01
            ****
 Initial command:
 /data2/g16/g16/l1.exe "/tmp/Gau-28454.inp" -scrdir="/tmp/"
 Entering Link 1 = /data2/g16/g16/l1.exe PID=     28455.
  
 Copyright (c) 1988-2017, Gaussian, Inc.  All Rights Reserved.
  
 This is part of the Gaussian(R) 16 program.  It is based on
 the Gaussian(R) 09 system (copyright 2009, Gaussian, Inc.),
 the Gaussian(R) 03 system (copyright 2003, Gaussian, Inc.),
 the Gaussian(R) 98 system (copyright 1998, Gaussian, Inc.),
 the Gaussian(R) 94 system (copyright 1995, Gaussian, Inc.),
 the Gaussian 92(TM) system (copyright 1992, Gaussian, Inc.),
 the Gaussian 90(TM) system (copyright 1990, Gaussian, Inc.),
 the Gaussian 88(TM) system (copyright 1988, Gaussian, Inc.),
 the Gaussian 86(TM) system (copyright 1986, Carnegie Mellon
 University), and the Gaussian 82(TM) system (copyright 1983,
 Carnegie Mellon University). Gaussian is a federally registered
 trademark of Gaussian, Inc.
  
 This software contains proprietary and confidential information,
 including trade secrets, belonging to Gaussian, Inc.
  
 This software is provided under written license and may be
 used, copied, transmitted, or stored only in accord with that
 written license.
  
 The following legend is applicable only to US Government
 contracts under FAR:
  
                    RESTRICTED RIGHTS LEGEND
  
 Use, reproduction and disclosure by the US Government is
 subject to restrictions as set forth in subparagraphs (a)
 and (c) of the Commercial Computer Software - Restricted
 Rights clause in FAR 52.227-19.
  
 Gaussian, Inc.
 340 Quinnipiac St., Bldg. 40, Wallingford CT 06492
  
  
 ---------------------------------------------------------------
 Warning -- This program may not be used in any manner that
 competes with the business of Gaussian, Inc. or will provide
 assistance to any competitor of Gaussian, Inc.  The licensee
 of this program is prohibited from giving any competitor of
 Gaussian, Inc. access to this program.  By using this program,
 the user acknowledges that Gaussian, Inc. is engaged in the
 business of creating and licensing software in the field of
 computational chemistry and represents and warrants to the
 licensee that it is not a competitor of Gaussian, Inc. and that
 it will not use this program in any manner prohibited above.
 ---------------------------------------------------------------
  

 Cite this work as:
 Gaussian 16, Revision B.01,
 M. J. Frisch, G. W. Trucks, H. B. Schlegel, G. E. Scuseria, 
 M. A. Robb, J. R. Cheeseman, G. Scalmani, V. Barone, 
 G. A. Petersson, H. Nakatsuji, X. Li, M. Caricato, A. V. Marenich, 
 J. Bloino, B. G. Janesko, R. Gomperts, B. Mennucci, H. P. Hratchian, 
 J. V. Ortiz, A. F. Izmaylov, J. L. Sonnenberg, D. Williams-Young, 
 F. Ding, F. Lipparini, F. Egidi, J. Goings, B. Peng, A. Petrone, 
 T. Henderson, D. Ranasinghe, V. G. Zakrzewski, J. Gao, N. Rega, 
 G. Zheng, W. Liang, M. Hada, M. Ehara, K. Toyota, R. Fukuda, 
 J. Hasegawa, M. Ishida, T. Nakajima, Y. Honda, O. Kitao, H. Nakai, 
 T. Vreven, K. Throssell, J. A. Montgomery, Jr., J. E. Peralta, 
 F. Ogliaro, M. J. Bearpark, J. J. Heyd, E. N. Brothers, K. N. Kudin, 
 V. N. Staroverov, T. A. Keith, R. Kobayashi, J. Normand, 
 K. Raghavachari, A. P. Rendell, J. C. Burant, S. S. Iyengar, 
 J. Tomasi, M. Cossi, J. M. Millam, M. Klene, C. Adamo, R. Cammi, 
 J. W. Ochterski, R. L. Martin, K. Morokuma, O. Farkas, 
 J. B. Foresman, and D. J. Fox, Gaussian, Inc., Wallingford CT, 2016.
 
 ******************************************
 Gaussian 16:  AM64L-G16RevB.01 20-Dec-2017
                17-Jun-2019 
 ******************************************
 %chk=MTN_PBE0_-0.29.chk
 %mem=60GB
 %nprocshared=12
 Will use up to   12 processors via shared memory.
 -----------------
 #p gen 6d pbe1pbe
 -----------------
 1/38=1,172=1/1;
 2/12=2,17=6,18=5,40=1/2;
 3/5=7,8=2,11=2,25=1,30=1,74=-13/1,2,3;
 4//1;
 5/5=2,38=5/2;
 6/7=2,8=2,9=2,10=2,28=1/1;
 99/5=1,9=1/99;
 Leave Link    1 at Mon Jun 17 21:33:28 2019, MaxMem=  8053063680 cpu:               0.0 elap:               0.1
 (Enter /data2/g16/g16/l101.exe)
 ------------------
 start preoptimized
 ------------------
 Symbolic Z-matrix:
 Charge =  0 Multiplicity = 2
 O                    -3.76718   0.20865   0.8637 
 N                    -2.60633   0.03447   0.38542 
 C                    -2.16023  -1.26783  -0.15583 
 C                    -0.88228  -0.84939  -0.82234 
 C                    -0.6064    0.44957  -0.65879 
 C                     0.60465   1.12588  -1.19949 
 S                     1.94207   1.44056   0.03329 
 C                    -1.69151   1.16543   0.11704 
 C                    -1.23134   1.76631   1.44911 
 C                    -2.4271    2.21805  -0.71641 
 C                    -3.2149   -1.80754  -1.12568 
 C                    -1.91344  -2.26006   0.98593 
 H                    -0.24303  -1.55847  -1.34161 
 H                     1.06129   0.53975  -2.00394 
 H                     0.38885   2.13     -1.58337 
 H                    -0.66022   1.03934   2.03612 
 H                    -0.60218   2.64807   1.28956 
 H                    -2.11523   2.07079   2.02092 
 H                    -3.31819   2.54294  -0.17285 
 H                    -1.78969   3.09253  -0.89027 
 H                    -2.7374    1.80787  -1.68399 
 H                    -3.37509  -1.11516  -1.95676 
 H                    -2.90018  -2.77333  -1.53018 
 H                    -4.16337  -1.93845  -0.59204 
 H                    -2.84015  -2.40821   1.55257 
 H                    -1.58798  -3.22661   0.58757 
 H                    -1.13701  -1.88825   1.6652 
 S                     2.75892  -0.53499   0.11038 
 O                     2.33723  -1.21329   1.35322 
 O                     2.50844  -1.18416  -1.20346 
 C                     4.51009  -0.16818   0.24815 
 H                     4.65935   0.44942   1.13429 
 H                     4.99961  -1.13879   0.36471 
 H                     4.8304    0.33471  -0.6659 
 
 ITRead=  0  0  0  0  0  0  0  0  0  0  0  0  0  0  0  0  0  0  0  0
 ITRead=  0  0  0  0  0  0  0  0  0  0  0  0  0  0
 MicOpt= -1 -1 -1 -1 -1 -1 -1 -1 -1 -1 -1 -1 -1 -1 -1 -1 -1 -1 -1 -1
 MicOpt= -1 -1 -1 -1 -1 -1 -1 -1 -1 -1 -1 -1 -1 -1
 NAtoms=     34 NQM=       34 NQMF=       0 NMMI=      0 NMMIF=      0
                NMic=       0 NMicF=      0.
                    Isotopes and Nuclear Properties:
 (Nuclear quadrupole moments (NQMom) in fm**2, nuclear magnetic moments (NMagM)
  in nuclear magnetons)

  Atom         1           2           3           4           5           6           7           8           9          10
 IAtWgt=          16          14          12          12          12          12          32          12          12          12
 AtmWgt=  15.9949146  14.0030740  12.0000000  12.0000000  12.0000000  12.0000000  31.9720718  12.0000000  12.0000000  12.0000000
 NucSpn=           0           2           0           0           0           0           0           0           0           0
 AtZEff=   0.0000000   0.0000000   0.0000000   0.0000000   0.0000000   0.0000000   0.0000000   0.0000000   0.0000000   0.0000000
 NQMom=    0.0000000   2.0440000   0.0000000   0.0000000   0.0000000   0.0000000   0.0000000   0.0000000   0.0000000   0.0000000
 NMagM=    0.0000000   0.4037610   0.0000000   0.0000000   0.0000000   0.0000000   0.0000000   0.0000000   0.0000000   0.0000000
 AtZNuc=   8.0000000   7.0000000   6.0000000   6.0000000   6.0000000   6.0000000  16.0000000   6.0000000   6.0000000   6.0000000

  Atom        11          12          13          14          15          16          17          18          19          20
 IAtWgt=          12          12           1           1           1           1           1           1           1           1
 AtmWgt=  12.0000000  12.0000000   1.0078250   1.0078250   1.0078250   1.0078250   1.0078250   1.0078250   1.0078250   1.0078250
 NucSpn=           0           0           1           1           1           1           1           1           1           1
 AtZEff=   0.0000000   0.0000000   0.0000000   0.0000000   0.0000000   0.0000000   0.0000000   0.0000000   0.0000000   0.0000000
 NQMom=    0.0000000   0.0000000   0.0000000   0.0000000   0.0000000   0.0000000   0.0000000   0.0000000   0.0000000   0.0000000
 NMagM=    0.0000000   0.0000000   2.7928460   2.7928460   2.7928460   2.7928460   2.7928460   2.7928460   2.7928460   2.7928460
 AtZNuc=   6.0000000   6.0000000   1.0000000   1.0000000   1.0000000   1.0000000   1.0000000   1.0000000   1.0000000   1.0000000

  Atom        21          22          23          24          25          26          27          28          29          30
 IAtWgt=           1           1           1           1           1           1           1          32          16          16
 AtmWgt=   1.0078250   1.0078250   1.0078250   1.0078250   1.0078250   1.0078250   1.0078250  31.9720718  15.9949146  15.9949146
 NucSpn=           1           1           1           1           1           1           1           0           0           0
 AtZEff=   0.0000000   0.0000000   0.0000000   0.0000000   0.0000000   0.0000000   0.0000000   0.0000000   0.0000000   0.0000000
 NQMom=    0.0000000   0.0000000   0.0000000   0.0000000   0.0000000   0.0000000   0.0000000   0.0000000   0.0000000   0.0000000
 NMagM=    2.7928460   2.7928460   2.7928460   2.7928460   2.7928460   2.7928460   2.7928460   0.0000000   0.0000000   0.0000000
 AtZNuc=   1.0000000   1.0000000   1.0000000   1.0000000   1.0000000   1.0000000   1.0000000  16.0000000   8.0000000   8.0000000

  Atom        31          32          33          34
 IAtWgt=          12           1           1           1
 AtmWgt=  12.0000000   1.0078250   1.0078250   1.0078250
 NucSpn=           0           1           1           1
 AtZEff=   0.0000000   0.0000000   0.0000000   0.0000000
 NQMom=    0.0000000   0.0000000   0.0000000   0.0000000
 NMagM=    0.0000000   2.7928460   2.7928460   2.7928460
 AtZNuc=   6.0000000   1.0000000   1.0000000   1.0000000
 Leave Link  101 at Mon Jun 17 21:33:28 2019, MaxMem=  8053063680 cpu:               0.0 elap:               0.2
 (Enter /data2/g16/g16/l202.exe)
                          Input orientation:                          
 ---------------------------------------------------------------------
 Center     Atomic      Atomic             Coordinates (Angstroms)
 Number     Number       Type             X           Y           Z
 ---------------------------------------------------------------------
      1          8           0       -3.767182    0.208649    0.863701
      2          7           0       -2.606331    0.034469    0.385421
      3          6           0       -2.160233   -1.267829   -0.155832
      4          6           0       -0.882283   -0.849392   -0.822339
      5          6           0       -0.606404    0.449574   -0.658788
      6          6           0        0.604645    1.125876   -1.199488
      7         16           0        1.942067    1.440561    0.033285
      8          6           0       -1.691506    1.165435    0.117041
      9          6           0       -1.231336    1.766310    1.449111
     10          6           0       -2.427099    2.218054   -0.716414
     11          6           0       -3.214901   -1.807544   -1.125680
     12          6           0       -1.913442   -2.260064    0.985931
     13          1           0       -0.243033   -1.558474   -1.341613
     14          1           0        1.061289    0.539749   -2.003942
     15          1           0        0.388848    2.129995   -1.583368
     16          1           0       -0.660215    1.039340    2.036119
     17          1           0       -0.602183    2.648065    1.289561
     18          1           0       -2.115228    2.070791    2.020922
     19          1           0       -3.318192    2.542935   -0.172846
     20          1           0       -1.789685    3.092530   -0.890269
     21          1           0       -2.737398    1.807868   -1.683986
     22          1           0       -3.375085   -1.115158   -1.956764
     23          1           0       -2.900184   -2.773333   -1.530176
     24          1           0       -4.163369   -1.938448   -0.592038
     25          1           0       -2.840151   -2.408214    1.552570
     26          1           0       -1.587977   -3.226613    0.587568
     27          1           0       -1.137009   -1.888250    1.665199
     28         16           0        2.758923   -0.534988    0.110376
     29          8           0        2.337232   -1.213290    1.353224
     30          8           0        2.508439   -1.184162   -1.203459
     31          6           0        4.510088   -0.168180    0.248146
     32          1           0        4.659352    0.449418    1.134287
     33          1           0        4.999613   -1.138787    0.364706
     34          1           0        4.830398    0.334714   -0.665895
 ---------------------------------------------------------------------
                    Distance matrix (angstroms):
                    1          2          3          4          5
     1  O    0.000000
     2  N    1.267543   0.000000
     3  C    2.408676   1.479168   0.000000
     4  C    3.504971   2.283032   1.500826   0.000000
     5  C    3.516608   2.293991   2.369984   1.337973   0.000000
     6  C    4.920460   3.743457   3.803103   2.500976   1.488751
     7  S    5.899383   4.773785   4.919350   3.735362   2.820589
     8  C    2.404448   1.479195   2.492978   2.365757   1.513874
     9  C    3.033072   2.453838   3.555937   3.481841   2.562727
    10  C    2.886225   2.452388   3.540741   3.436117   2.538853
    11  C    2.885773   2.459023   1.531085   2.539917   3.480923
    12  C    3.089634   2.470949   1.532664   2.514582   3.428642
    13  H    4.517273   3.332460   2.272929   1.086777   2.151870
    14  H    5.625579   4.406336   4.130503   2.665215   2.144474
    15  H    5.191561   4.151922   4.481170   3.327414   2.160831
    16  H    3.423135   2.742615   3.518200   3.433279   2.759211
    17  H    4.018622   3.415401   4.455436   4.095215   2.937592
    18  H    2.745120   2.657565   3.985808   4.258140   3.476455
    19  H    2.593244   2.666610   3.982848   4.226509   3.460071
    20  H    3.911991   3.412628   4.437278   4.045583   2.904988
    21  H    3.179413   2.728474   3.482569   3.353344   2.727110
    22  H    3.140259   2.720010   2.177735   2.751656   3.434927
    23  H    3.921039   3.411688   2.168615   2.876544   4.050663
    24  H    2.624150   2.696701   2.156979   3.464766   4.284753
    25  H    2.860402   2.717280   2.163655   3.450125   4.248139
    26  H    4.077525   3.422362   2.171855   2.852546   4.003903
    27  H    3.457918   2.737442   2.179005   2.707759   3.338844
    28  S    6.611395   5.402396   4.980564   3.771895   3.589763
    29  O    6.286924   5.189640   4.744198   3.902662   3.934247
    30  O    6.752517   5.492766   4.785501   3.428457   3.559214
    31  C    8.308677   7.120627   6.772415   5.539644   5.232842
    32  H    8.434315   7.315951   7.149831   6.018722   5.562671
    33  H    8.883765   7.695930   7.179903   6.007456   5.915899
    34  H    8.733495   7.516672   7.190079   5.836206   5.438020
                    6          7          8          9         10
     6  C    0.000000
     7  S    1.845929   0.000000
     8  C    2.647097   3.644937   0.000000
     9  C    3.285736   3.490152   1.532063   0.000000
    10  C    3.258479   4.500684   1.530931   2.514641   0.000000
    11  C    4.816569   6.203846   3.564224   4.830788   4.122326
    12  C    4.751990   5.428362   3.540942   4.109926   4.818232
    13  H    2.818598   3.957173   3.412539   4.451862   4.407174
    14  H    1.095087   2.395313   3.530996   4.322517   4.079618
    15  H    1.096443   2.345501   2.854757   3.457339   2.947698
    16  H    3.475128   3.308201   2.182274   1.095100   3.476735
    17  H    3.157350   3.083748   2.181655   1.094889   2.745754
    18  H    4.319909   4.561747   2.150342   1.095875   2.758978
    19  H    4.295428   5.378480   2.151197   2.754788   1.093188
    20  H    3.113866   4.184247   2.176697   2.746509   1.096007
    21  H    3.445156   4.998132   2.179520   3.476528   1.095780
    22  H    4.629682   6.226082   3.512294   4.949596   3.680686
    23  H    5.253286   6.606717   4.437130   5.680631   5.079366
    24  H    5.700266   7.006074   4.030755   5.146682   4.506286
    25  H    5.650684   6.323836   4.018843   4.475002   5.169261
    26  H    5.190888   5.878006   4.418393   5.079245   5.661174
    27  H    4.508297   4.819215   3.468321   3.662158   4.919161
    28  S    3.019127   2.139157   4.764221   4.796911   5.929388
    29  O    3.871678   2.990204   4.839133   4.649934   6.225462
    30  O    2.993447   2.956262   4.990377   5.452277   6.014301
    31  C    4.361503   3.037918   6.344721   6.176449   7.399260
    32  H    4.727023   3.094868   6.471543   6.044297   7.534650
    33  H    5.185667   4.013909   7.081091   6.959903   8.221512
    34  H    4.332164   3.170837   6.621051   6.577791   7.498052
                   11         12         13         14         15
    11  C    0.000000
    12  C    2.521403   0.000000
    13  H    2.990094   2.949569   0.000000
    14  H    4.956504   5.062343   2.557826   0.000000
    15  H    5.357303   5.583409   3.750003   1.777060   0.000000
    16  H    4.962675   3.682328   4.281560   4.419871   3.923104
    17  H    5.701941   5.089334   4.974639   4.249623   3.082898
    18  H    5.113890   4.457379   5.289926   5.351063   4.389169
    19  H    4.454798   5.136622   5.257773   5.152235   3.987761
    20  H    5.108560   5.673245   4.922162   3.985600   2.480497
    21  H    3.689298   4.935122   4.203729   4.017527   3.144408
    22  H    1.093507   3.479463   3.222528   4.735225   4.983737
    23  H    1.093349   2.750982   2.927779   5.185965   5.904506
    24  H    1.096130   2.766875   4.009399   5.952477   6.185276
    25  H    2.770246   1.096274   3.980374   6.046528   6.391861
    26  H    2.756058   1.094914   2.883280   5.283940   6.108523
    27  H    3.480396   1.096585   3.154182   4.918362   5.387738
    28  S    6.231678   5.057023   3.488199   2.916738   3.948184
    29  O    6.109360   4.393048   3.746874   3.996466   4.857708
    30  O    5.757714   5.050151   2.780251   2.388909   3.952295
    31  C    8.015633   6.795737   5.201193   4.179387   5.061687
    32  H    8.497364   7.110902   5.847657   4.775217   5.333591
    33  H    8.375364   7.030897   5.529286   4.892686   5.978217
    34  H    8.338316   7.412205   5.457147   4.004821   4.877720
                   16         17         18         19         20
    16  H    0.000000
    17  H    1.774461   0.000000
    18  H    1.783588   1.776918   0.000000
    19  H    3.768974   3.086485   2.546107   0.000000
    20  H    3.749005   2.521779   3.102412   1.775693   0.000000
    21  H    4.329493   3.755936   3.765975   1.777973   1.782836
    22  H    5.287296   5.691174   5.249714   4.070288   4.621206
    23  H    5.680880   6.528651   6.057391   5.502707   6.004252
    24  H    5.295896   6.103979   5.205424   4.579611   5.570822
    25  H    4.107502   5.535669   4.561398   5.264927   6.109757
    26  H    4.599717   5.998035   5.513165   6.071207   6.492785
    27  H    2.989264   4.583154   4.093587   5.269855   5.636007
    28  S    4.228179   4.776959   5.847873   6.818002   5.903390
    29  O    3.811217   4.853275   5.572738   6.958587   6.372189
    30  O    5.047692   5.529655   6.509197   6.993071   6.071413
    31  C    5.602409   5.928836   7.214606   8.295140   7.184383
    32  H    5.427624   5.704552   7.022101   8.350606   7.257751
    33  H    6.290589   6.824641   7.979060   9.112075   8.097751
    34  H    6.159887   6.219995   7.646873   8.456882   7.175053
                   21         22         23         24         25
    21  H    0.000000
    22  H    3.004186   0.000000
    23  H    4.586672   1.776810   0.000000
    24  H    4.154591   1.778110   1.781228   0.000000
    25  H    5.316126   3.778038   3.104873   2.563382   0.000000
    26  H    5.641553   3.758407   2.532230   3.111830   1.780153
    27  H    5.238280   4.327271   3.755340   3.775777   1.784304
    28  S    6.238450   6.498901   6.302943   7.097972   6.077708
    29  O    6.641077   6.602743   6.178856   6.824054   5.317225
    30  O    6.058214   5.931955   5.646717   6.742092   6.140148
    31  C    7.756543   8.242230   8.053656   8.892053   7.793926
    32  H    8.031187   8.749553   8.638986   9.301748   8.036390
    33  H    8.528848   8.690532   8.286683   9.247435   8.030216
    34  H    7.776775   8.431988   8.376684   9.276883   8.442900
                   26         27         28         29         30
    26  H    0.000000
    27  H    1.776479   0.000000
    28  S    5.134988   4.407616   0.000000
    29  O    4.477384   3.552921   1.477358   0.000000
    30  O    4.915283   4.691932   1.486718   2.562575   0.000000
    31  C    6.830492   6.070946   1.794466   2.652311   2.673196
    32  H    7.269197   6.272508   2.372568   2.864397   3.572124
    33  H    6.914118   6.317524   2.334513   2.840949   2.944002
    34  H    7.446459   6.781262   2.376970   3.562167   2.826208
                   31         32         33         34
    31  C    0.000000
    32  H    1.090391   0.000000
    33  H    1.093297   1.797339   0.000000
    34  H    1.091317   1.811924   1.806094   0.000000
 Stoichiometry    C10H18NO3S2(2)
 Framework group  C1[X(C10H18NO3S2)]
 Deg. of freedom    96
 Full point group                 C1      NOp   1
 Largest Abelian subgroup         C1      NOp   1
 Largest concise Abelian subgroup C1      NOp   1
                         Standard orientation:                         
 ---------------------------------------------------------------------
 Center     Atomic      Atomic             Coordinates (Angstroms)
 Number     Number       Type             X           Y           Z
 ---------------------------------------------------------------------
      1          8           0       -3.765193    0.199649    0.873710
      2          7           0       -2.605269    0.027915    0.392305
      3          6           0       -2.157469   -1.273765   -0.149031
      4          6           0       -0.882452   -0.852765   -0.819528
      5          6           0       -0.609339    0.447030   -0.657932
      6          6           0        0.598493    1.125843   -1.202667
      7         16           0        1.938608    1.444969    0.026032
      8          6           0       -1.694019    1.160903    0.120316
      9          6           0       -1.231579    1.764131    1.450535
     10          6           0       -2.434578    2.210933   -0.712005
     11          6           0       -3.213530   -1.816978   -1.115403
     12          6           0       -1.904987   -2.264344    0.992926
     13          1           0       -0.242913   -1.560731   -1.339968
     14          1           0        1.054315    0.540119   -2.007880
     15          1           0        0.379117    2.129073   -1.586842
     16          1           0       -0.656997    1.039115    2.036582
     17          1           0       -0.605072    2.647299    1.288409
     18          1           0       -2.114605    2.066938    2.024569
     19          1           0       -3.324935    2.534097   -0.166212
     20          1           0       -1.799832    3.086830   -0.888453
     21          1           0       -2.746591    1.799098   -1.678324
     22          1           0       -3.377783   -1.125749   -1.946656
     23          1           0       -2.897560   -2.782351   -1.519915
     24          1           0       -4.160158   -1.949750   -0.578962
     25          1           0       -2.829720   -2.414277    1.562318
     26          1           0       -1.578250   -3.230445    0.594517
     27          1           0       -1.127563   -1.889986    1.669658
     28         16           0        2.760584   -0.528476    0.102597
     29          8           0        2.344094   -1.206690    1.347246
     30          8           0        2.508001   -1.179466   -1.209937
     31          6           0        4.511215   -0.157198    0.235081
     32          1           0        4.661448    0.461575    1.120238
     33          1           0        5.003477   -1.126481    0.351133
     34          1           0        4.827689    0.345657   -0.680317
 ---------------------------------------------------------------------
 Rotational constants (GHZ):           0.7801330           0.2769807           0.2422117
 Leave Link  202 at Mon Jun 17 21:33:28 2019, MaxMem=  8053063680 cpu:               0.0 elap:               0.1
 (Enter /data2/g16/g16/l301.exe)
 General basis read from cards:  (6D, 7F)
 Centers:      13     14     15     16     17     18     19     20     21     22
 Centers:      23     24     25     26     27     32     33     34
 6-31G
 S 1 1.00 0.000000000000
     Exponent=  4.0000000000D-01 Coefficients=  1.0000000000D+00
 P 1 1.00 0.000000000000
     Exponent=  7.5000000000D-01 Coefficients=  1.0000000000D+00
 ****
 Centers:       3      4      5      6      8      9     10     11     12     31
 6-31G
 S 1 1.00 0.000000000000
     Exponent=  8.7000000000D+00 Coefficients=  1.0000000000D+00
 P 1 1.00 0.000000000000
     Exponent=  5.0000000000D-02 Coefficients=  1.0000000000D+00
 D 1 1.00
     Exponent=  8.2000000000D-01 Coefficients=  1.0000000000D+00
 ****
 Centers:       2
 6-31G
 S 1 1.00 0.000000000000
     Exponent=  1.3700000000D+01 Coefficients=  1.0000000000D+00
 P 1 1.00 0.000000000000
     Exponent=  5.3000000000D-02 Coefficients=  1.0000000000D+00
 D 1 1.00 0.000000000000
     Exponent=  1.0150000000D+00 Coefficients=  1.0000000000D+00
 ****
 Centers:       1     29     30
 6-31G
 S 1 1.00
     Exponent=  1.6000000000D+01 Coefficients=  1.0000000000D+00
 P 1 1.00 0.000000000000
     Exponent=  6.5000000000D-02 Coefficients=  1.0000000000D+00
 D 1 1.00 0.000000000000
     Exponent=  1.1900000000D+00 Coefficients=  1.0000000000D+00
 D 1 1.00 0.000000000000
     Exponent=  1.8000000000D-01 Coefficients=  1.0000000000D+00
 ****
 Centers:       7     28
 6-31G
 S 1 1.00 0.000000000000
     Exponent=  7.5000000000D+00 Coefficients=  1.0000000000D+00
 P 1 1.00 0.000000000000
     Exponent=  4.1000000000D-02 Coefficients=  1.0000000000D+00
 D 1 1.00 0.000000000000
     Exponent=  4.7900000000D-01 Coefficients=  1.0000000000D+00
 ****
 Ernie: Thresh=  0.10000D-02 Tol=  0.10000D-05 Strict=F.
 There are   438 symmetry adapted cartesian basis functions of A   symmetry.
 There are   438 symmetry adapted basis functions of A   symmetry.
   438 basis functions,   722 primitive gaussians,   438 cartesian basis functions
    71 alpha electrons       70 beta electrons
       nuclear repulsion energy      1520.6877007593 Hartrees.
 IExCor= 1009 DFT=T Ex+Corr=PBE1PBE ExCW=0 ScaHFX=  0.250000
 ScaDFX=  0.750000  0.750000  1.000000  1.000000 ScalE2=  1.000000  1.000000
 IRadAn=      5 IRanWt=     -1 IRanGd=            0 ICorTp=0 IEmpDi=  4
 NAtoms=   34 NActive=   34 NUniq=   34 SFac= 1.00D+00 NAtFMM=   60 NAOKFM=F Big=F
 Integral buffers will be    131072 words long.
 Raffenetti 2 integral format.
 Two-electron integral symmetry is turned on.
 Leave Link  301 at Mon Jun 17 21:33:28 2019, MaxMem=  8053063680 cpu:               0.0 elap:               0.2
 (Enter /data2/g16/g16/l302.exe)
 NPDir=0 NMtPBC=     1 NCelOv=     1 NCel=       1 NClECP=     1 NCelD=      1
         NCelK=      1 NCelE2=     1 NClLst=     1 CellRange=     0.0.
 One-electron integrals computed using PRISM.
 One-electron integral symmetry used in STVInt
 NBasis=   438 RedAO= T EigKep=  6.44D-05  NBF=   438
 NBsUse=   438 1.00D-06 EigRej= -1.00D+00 NBFU=   438
 Precomputing XC quadrature grid using
 IXCGrd= 4 IRadAn=           5 IRanWt=          -1 IRanGd=           0 AccXCQ= 0.00D+00.
 Generated NRdTot=       0 NPtTot=           0 NUsed=           0 NTot=          32
 NSgBfM=   433   433   433   433   433 MxSgAt=    34 MxSgA2=    34.
 Leave Link  302 at Mon Jun 17 21:33:29 2019, MaxMem=  8053063680 cpu:               0.0 elap:               0.5
 (Enter /data2/g16/g16/l303.exe)
 DipDrv:  MaxL=1.
 Leave Link  303 at Mon Jun 17 21:33:29 2019, MaxMem=  8053063680 cpu:               0.0 elap:               0.1
 (Enter /data2/g16/g16/l401.exe)
 ExpMin= 4.10D-02 ExpMax= 2.19D+04 ExpMxC= 3.30D+03 IAcc=3 IRadAn=         5 AccDes= 0.00D+00
 Harris functional with IExCor= 1009 and IRadAn=       5 diagonalized for initial guess.
 HarFok:  IExCor= 1009 AccDes= 0.00D+00 IRadAn=         5 IDoV= 1 UseB2=F ITyADJ=14
 ICtDFT=  3500011 ScaDFX=  1.000000  1.000000  1.000000  1.000000
 FoFCou: FMM=F IPFlag=           0 FMFlag=      100000 FMFlg1=           0
         NFxFlg=           0 DoJE=T BraDBF=F KetDBF=T FulRan=T
         wScrn=  0.000000 ICntrl=       500 IOpCl=  0 I1Cent=   200000004 NGrid=           0
         NMat0=    1 NMatS0=      1 NMatT0=    0 NMatD0=    1 NMtDS0=    0 NMtDT0=    0
 Petite list used in FoFCou.
 Harris En= -1467.69837120393    
 JPrj=0 DoOrth=F DoCkMO=F.
 Initial guess <Sx>= 0.0000 <Sy>= 0.0000 <Sz>= 0.5000 <S**2>= 0.7500 S= 0.5000
 Leave Link  401 at Mon Jun 17 21:33:31 2019, MaxMem=  8053063680 cpu:               0.0 elap:               1.6
 (Enter /data2/g16/g16/l502.exe)
 Integral symmetry usage will be decided dynamically.
 UHF open shell SCF:
 Using DIIS extrapolation, IDIIS=  1040.
 NGot=  8053063680 LenX=  8052670277 LenY=  8052477992
 Requested convergence on RMS density matrix=1.00D-08 within 128 cycles.
 Requested convergence on MAX density matrix=1.00D-06.
 Requested convergence on             energy=1.00D-06.
 No special actions if energy rises.
 Fock matrices will be formed incrementally for  20 cycles.

 Cycle   1  Pass 1  IDiag  1:
 FoFJK:  IHMeth= 1 ICntrl=       0 DoSepK=F KAlg= 0 I1Cent=           0 FoldK=F
 IRaf= 840000000 NMat=       1 IRICut=       1 DoRegI=T DoRafI=F ISym2E= 0 IDoP0=0 IntGTp=1.
 FoFCou: FMM=F IPFlag=           0 FMFlag=      100000 FMFlg1=           0
         NFxFlg=           0 DoJE=F BraDBF=F KetDBF=F FulRan=T
         wScrn=  0.000000 ICntrl=         0 IOpCl=  1 I1Cent=           0 NGrid=           0
         NMat0=    1 NMatS0=      1 NMatT0=    0 NMatD0=    1 NMtDS0=    0 NMtDT0=    0
 Symmetry not used in FoFCou.
 E= -1466.93534368567    
 DIIS: error= 2.60D-02 at cycle   1 NSaved=   1.
 NSaved= 1 IEnMin= 1 EnMin= -1466.93534368567     IErMin= 1 ErrMin= 2.60D-02
 ErrMax= 2.60D-02  0.00D+00 EMaxC= 1.00D-01 BMatC= 2.97D+00 BMatP= 2.97D+00
 IDIUse=3 WtCom= 7.40D-01 WtEn= 2.60D-01
 Coeff-Com:  0.100D+01
 Coeff-En:   0.100D+01
 Coeff:      0.100D+01
 Gap=     0.225 Goal=   None    Shift=    0.000
 Gap=     0.364 Goal=   None    Shift=    0.000
 GapD=    0.225 DampG=1.000 DampE=0.500 DampFc=0.5000 IDamp=-1.
 Damping current iteration by 5.00D-01
 RMSDP=4.75D-03 MaxDP=4.12D-01              OVMax= 2.99D-01

 Cycle   2  Pass 1  IDiag  1:
 RMSU=  2.37D-03    CP:  9.92D-01
 E= -1467.06118867713     Delta-E=       -0.125844991457 Rises=F Damp=T
 DIIS: error= 1.02D-02 at cycle   2 NSaved=   2.
 NSaved= 2 IEnMin= 2 EnMin= -1467.06118867713     IErMin= 2 ErrMin= 1.02D-02
 ErrMax= 1.02D-02  0.00D+00 EMaxC= 1.00D-01 BMatC= 5.25D-01 BMatP= 2.97D+00
 IDIUse=3 WtCom= 8.98D-01 WtEn= 1.02D-01
 Coeff-Com:  0.227D+00 0.773D+00
 Coeff-En:   0.396D+00 0.604D+00
 Coeff:      0.244D+00 0.756D+00
 Gap=     0.128 Goal=   None    Shift=    0.000
 Gap=     0.185 Goal=   None    Shift=    0.000
 RMSDP=1.67D-03 MaxDP=1.19D-01 DE=-1.26D-01 OVMax= 2.85D-01

 Cycle   3  Pass 1  IDiag  1:
 RMSU=  1.39D-03    CP:  9.82D-01  6.10D-01
 E= -1467.46566995412     Delta-E=       -0.404481276993 Rises=F Damp=F
 DIIS: error= 7.46D-03 at cycle   3 NSaved=   3.
 NSaved= 3 IEnMin= 3 EnMin= -1467.46566995412     IErMin= 3 ErrMin= 7.46D-03
 ErrMax= 7.46D-03  0.00D+00 EMaxC= 1.00D-01 BMatC= 3.57D-01 BMatP= 5.25D-01
 IDIUse=3 WtCom= 9.25D-01 WtEn= 7.46D-02
 Coeff-Com:  0.532D-01 0.446D+00 0.501D+00
 Coeff-En:   0.000D+00 0.000D+00 0.100D+01
 Coeff:      0.492D-01 0.413D+00 0.538D+00
 Gap=     0.146 Goal=   None    Shift=    0.000
 Gap=     0.223 Goal=   None    Shift=    0.000
 RMSDP=9.21D-04 MaxDP=6.33D-02 DE=-4.04D-01 OVMax= 1.08D-01

 Cycle   4  Pass 1  IDiag  1:
 RMSU=  6.15D-04    CP:  9.87D-01  7.31D-01  5.53D-01
 E= -1467.53914403689     Delta-E=       -0.073474082770 Rises=F Damp=F
 DIIS: error= 2.27D-03 at cycle   4 NSaved=   4.
 NSaved= 4 IEnMin= 4 EnMin= -1467.53914403689     IErMin= 4 ErrMin= 2.27D-03
 ErrMax= 2.27D-03  0.00D+00 EMaxC= 1.00D-01 BMatC= 3.94D-02 BMatP= 3.57D-01
 IDIUse=3 WtCom= 9.77D-01 WtEn= 2.27D-02
 Coeff-Com: -0.140D-01 0.708D-01 0.270D+00 0.673D+00
 Coeff-En:   0.000D+00 0.000D+00 0.759D-01 0.924D+00
 Coeff:     -0.136D-01 0.692D-01 0.266D+00 0.679D+00
 Gap=     0.145 Goal=   None    Shift=    0.000
 Gap=     0.202 Goal=   None    Shift=    0.000
 RMSDP=3.04D-04 MaxDP=1.66D-02 DE=-7.35D-02 OVMax= 3.04D-02

 Cycle   5  Pass 1  IDiag  1:
 RMSU=  2.03D-04    CP:  9.86D-01  7.23D-01  6.55D-01  7.15D-01
 E= -1467.54734007572     Delta-E=       -0.008196038831 Rises=F Damp=F
 DIIS: error= 8.64D-04 at cycle   5 NSaved=   5.
 NSaved= 5 IEnMin= 5 EnMin= -1467.54734007572     IErMin= 5 ErrMin= 8.64D-04
 ErrMax= 8.64D-04  0.00D+00 EMaxC= 1.00D-01 BMatC= 3.97D-03 BMatP= 3.94D-02
 IDIUse=3 WtCom= 9.91D-01 WtEn= 8.64D-03
 Coeff-Com: -0.988D-02 0.178D-01 0.122D+00 0.378D+00 0.492D+00
 Coeff-En:   0.000D+00 0.000D+00 0.000D+00 0.000D+00 0.100D+01
 Coeff:     -0.979D-02 0.176D-01 0.121D+00 0.375D+00 0.496D+00
 Gap=     0.145 Goal=   None    Shift=    0.000
 Gap=     0.205 Goal=   None    Shift=    0.000
 RMSDP=1.10D-04 MaxDP=5.34D-03 DE=-8.20D-03 OVMax= 1.26D-02

 Cycle   6  Pass 1  IDiag  1:
 RMSU=  6.95D-05    CP:  9.85D-01  7.25D-01  6.52D-01  7.72D-01  6.24D-01
 E= -1467.54820277061     Delta-E=       -0.000862694883 Rises=F Damp=F
 DIIS: error= 2.40D-04 at cycle   6 NSaved=   6.
 NSaved= 6 IEnMin= 6 EnMin= -1467.54820277061     IErMin= 6 ErrMin= 2.40D-04
 ErrMax= 2.40D-04  0.00D+00 EMaxC= 1.00D-01 BMatC= 4.05D-04 BMatP= 3.97D-03
 IDIUse=3 WtCom= 9.98D-01 WtEn= 2.40D-03
 Coeff-Com: -0.332D-02 0.209D-02 0.340D-01 0.119D+00 0.273D+00 0.576D+00
 Coeff-En:   0.000D+00 0.000D+00 0.000D+00 0.000D+00 0.440D-01 0.956D+00
 Coeff:     -0.331D-02 0.209D-02 0.339D-01 0.118D+00 0.272D+00 0.576D+00
 Gap=     0.147 Goal=   None    Shift=    0.000
 Gap=     0.206 Goal=   None    Shift=    0.000
 RMSDP=3.59D-05 MaxDP=2.49D-03 DE=-8.63D-04 OVMax= 5.19D-03

 Cycle   7  Pass 1  IDiag  1:
 RMSU=  2.54D-05    CP:  9.85D-01  7.22D-01  6.57D-01  7.74D-01  6.68D-01
                    CP:  6.97D-01
 E= -1467.54829678321     Delta-E=       -0.000094012600 Rises=F Damp=F
 DIIS: error= 1.20D-04 at cycle   7 NSaved=   7.
 NSaved= 7 IEnMin= 7 EnMin= -1467.54829678321     IErMin= 7 ErrMin= 1.20D-04
 ErrMax= 1.20D-04  0.00D+00 EMaxC= 1.00D-01 BMatC= 6.70D-05 BMatP= 4.05D-04
 IDIUse=3 WtCom= 9.99D-01 WtEn= 1.20D-03
 Coeff-Com: -0.764D-04-0.236D-02-0.266D-02 0.106D-03 0.603D-01 0.329D+00
 Coeff-Com:  0.615D+00
 Coeff-En:   0.000D+00 0.000D+00 0.000D+00 0.000D+00 0.000D+00 0.704D-01
 Coeff-En:   0.930D+00
 Coeff:     -0.763D-04-0.236D-02-0.265D-02 0.106D-03 0.602D-01 0.329D+00
 Coeff:      0.616D+00
 Gap=     0.147 Goal=   None    Shift=    0.000
 Gap=     0.206 Goal=   None    Shift=    0.000
 RMSDP=1.50D-05 MaxDP=9.84D-04 DE=-9.40D-05 OVMax= 1.15D-03

 Cycle   8  Pass 1  IDiag  1:
 RMSU=  1.05D-05    CP:  9.85D-01  7.22D-01  6.57D-01  7.73D-01  7.01D-01
                    CP:  7.92D-01  7.95D-01
 E= -1467.54831302294     Delta-E=       -0.000016239730 Rises=F Damp=F
 DIIS: error= 3.47D-05 at cycle   8 NSaved=   8.
 NSaved= 8 IEnMin= 8 EnMin= -1467.54831302294     IErMin= 8 ErrMin= 3.47D-05
 ErrMax= 3.47D-05  0.00D+00 EMaxC= 1.00D-01 BMatC= 5.31D-06 BMatP= 6.70D-05
 IDIUse=1 WtCom= 1.00D+00 WtEn= 0.00D+00
 Coeff-Com:  0.464D-03-0.128D-02-0.526D-02-0.150D-01-0.148D-01 0.717D-01
 Coeff-Com:  0.230D+00 0.734D+00
 Coeff:      0.464D-03-0.128D-02-0.526D-02-0.150D-01-0.148D-01 0.717D-01
 Coeff:      0.230D+00 0.734D+00
 Gap=     0.147 Goal=   None    Shift=    0.000
 Gap=     0.206 Goal=   None    Shift=    0.000
 RMSDP=5.21D-06 MaxDP=6.27D-04 DE=-1.62D-05 OVMax= 1.19D-03

 Cycle   9  Pass 1  IDiag  1:
 RMSU=  4.34D-06    CP:  9.85D-01  7.22D-01  6.56D-01  7.75D-01  7.00D-01
                    CP:  8.22D-01  8.38D-01  9.08D-01
 E= -1467.54831450568     Delta-E=       -0.000001482739 Rises=F Damp=F
 DIIS: error= 2.21D-05 at cycle   9 NSaved=   9.
 NSaved= 9 IEnMin= 9 EnMin= -1467.54831450568     IErMin= 9 ErrMin= 2.21D-05
 ErrMax= 2.21D-05  0.00D+00 EMaxC= 1.00D-01 BMatC= 3.37D-06 BMatP= 5.31D-06
 IDIUse=1 WtCom= 1.00D+00 WtEn= 0.00D+00
 Coeff-Com:  0.374D-03-0.448D-03-0.292D-02-0.103D-01-0.259D-01-0.252D-01
 Coeff-Com: -0.808D-03 0.492D+00 0.574D+00
 Coeff:      0.374D-03-0.448D-03-0.292D-02-0.103D-01-0.259D-01-0.252D-01
 Coeff:     -0.808D-03 0.492D+00 0.574D+00
 Gap=     0.147 Goal=   None    Shift=    0.000
 Gap=     0.206 Goal=   None    Shift=    0.000
 RMSDP=3.34D-06 MaxDP=2.37D-04 DE=-1.48D-06 OVMax= 3.01D-04

 Cycle  10  Pass 1  IDiag  1:
 RMSU=  2.34D-06    CP:  9.85D-01  7.22D-01  6.57D-01  7.75D-01  7.04D-01
                    CP:  8.39D-01  8.78D-01  1.04D+00  8.45D-01
 E= -1467.54831526743     Delta-E=       -0.000000761754 Rises=F Damp=F
 DIIS: error= 9.31D-06 at cycle  10 NSaved=  10.
 NSaved=10 IEnMin=10 EnMin= -1467.54831526743     IErMin=10 ErrMin= 9.31D-06
 ErrMax= 9.31D-06  0.00D+00 EMaxC= 1.00D-01 BMatC= 5.60D-07 BMatP= 3.37D-06
 IDIUse=1 WtCom= 1.00D+00 WtEn= 0.00D+00
 Coeff-Com:  0.119D-03 0.608D-04-0.166D-03-0.183D-02-0.124D-01-0.325D-01
 Coeff-Com: -0.706D-01 0.110D+00 0.337D+00 0.670D+00
 Coeff:      0.119D-03 0.608D-04-0.166D-03-0.183D-02-0.124D-01-0.325D-01
 Coeff:     -0.706D-01 0.110D+00 0.337D+00 0.670D+00
 Gap=     0.147 Goal=   None    Shift=    0.000
 Gap=     0.206 Goal=   None    Shift=    0.000
 RMSDP=1.66D-06 MaxDP=1.31D-04 DE=-7.62D-07 OVMax= 2.76D-04

 Cycle  11  Pass 1  IDiag  1:
 RMSU=  9.71D-07    CP:  9.85D-01  7.22D-01  6.57D-01  7.75D-01  7.04D-01
                    CP:  8.46D-01  8.87D-01  1.14D+00  9.78D-01  8.79D-01
 E= -1467.54831543147     Delta-E=       -0.000000164044 Rises=F Damp=F
 DIIS: error= 5.55D-06 at cycle  11 NSaved=  11.
 NSaved=11 IEnMin=11 EnMin= -1467.54831543147     IErMin=11 ErrMin= 5.55D-06
 ErrMax= 5.55D-06  0.00D+00 EMaxC= 1.00D-01 BMatC= 1.04D-07 BMatP= 5.60D-07
 IDIUse=1 WtCom= 1.00D+00 WtEn= 0.00D+00
 Coeff-Com:  0.387D-05 0.836D-04 0.438D-03 0.848D-03-0.223D-02-0.108D-01
 Coeff-Com: -0.371D-01-0.197D-01 0.655D-01 0.358D+00 0.645D+00
 Coeff:      0.387D-05 0.836D-04 0.438D-03 0.848D-03-0.223D-02-0.108D-01
 Coeff:     -0.371D-01-0.197D-01 0.655D-01 0.358D+00 0.645D+00
 Gap=     0.147 Goal=   None    Shift=    0.000
 Gap=     0.206 Goal=   None    Shift=    0.000
 RMSDP=6.23D-07 MaxDP=6.50D-05 DE=-1.64D-07 OVMax= 1.29D-04

 Cycle  12  Pass 1  IDiag  1:
 RMSU=  4.38D-07    CP:  9.85D-01  7.22D-01  6.57D-01  7.75D-01  7.04D-01
                    CP:  8.47D-01  8.84D-01  1.15D+00  1.03D+00  9.91D-01
                    CP:  8.27D-01
 E= -1467.54831545796     Delta-E=       -0.000000026492 Rises=F Damp=F
 DIIS: error= 3.43D-06 at cycle  12 NSaved=  12.
 NSaved=12 IEnMin=12 EnMin= -1467.54831545796     IErMin=12 ErrMin= 3.43D-06
 ErrMax= 3.43D-06  0.00D+00 EMaxC= 1.00D-01 BMatC= 2.91D-08 BMatP= 1.04D-07
 IDIUse=1 WtCom= 1.00D+00 WtEn= 0.00D+00
 Coeff-Com: -0.148D-04 0.315D-04 0.305D-03 0.841D-03 0.625D-03-0.137D-02
 Coeff-Com: -0.126D-01-0.344D-01-0.275D-01 0.103D+00 0.406D+00 0.565D+00
 Coeff:     -0.148D-04 0.315D-04 0.305D-03 0.841D-03 0.625D-03-0.137D-02
 Coeff:     -0.126D-01-0.344D-01-0.275D-01 0.103D+00 0.406D+00 0.565D+00
 Gap=     0.147 Goal=   None    Shift=    0.000
 Gap=     0.206 Goal=   None    Shift=    0.000
 RMSDP=3.39D-07 MaxDP=2.38D-05 DE=-2.65D-08 OVMax= 2.97D-05

 Cycle  13  Pass 1  IDiag  1:
 RMSU=  2.09D-07    CP:  9.85D-01  7.22D-01  6.57D-01  7.75D-01  7.04D-01
                    CP:  8.49D-01  8.86D-01  1.16D+00  1.05D+00  1.06D+00
                    CP:  9.52D-01  8.39D-01
 E= -1467.54831546435     Delta-E=       -0.000000006388 Rises=F Damp=F
 DIIS: error= 1.06D-06 at cycle  13 NSaved=  13.
 NSaved=13 IEnMin=13 EnMin= -1467.54831546435     IErMin=13 ErrMin= 1.06D-06
 ErrMax= 1.06D-06  0.00D+00 EMaxC= 1.00D-01 BMatC= 4.08D-09 BMatP= 2.91D-08
 IDIUse=1 WtCom= 1.00D+00 WtEn= 0.00D+00
 Coeff-Com: -0.530D-05-0.735D-05 0.572D-04 0.218D-03 0.901D-03 0.274D-02
 Coeff-Com:  0.355D-02-0.963D-02-0.324D-01-0.362D-01 0.602D-01 0.303D+00
 Coeff-Com:  0.708D+00
 Coeff:     -0.530D-05-0.735D-05 0.572D-04 0.218D-03 0.901D-03 0.274D-02
 Coeff:      0.355D-02-0.963D-02-0.324D-01-0.362D-01 0.602D-01 0.303D+00
 Coeff:      0.708D+00
 Gap=     0.147 Goal=   None    Shift=    0.000
 Gap=     0.206 Goal=   None    Shift=    0.000
 RMSDP=1.29D-07 MaxDP=1.35D-05 DE=-6.39D-09 OVMax= 2.22D-05

 Cycle  14  Pass 1  IDiag  1:
 RMSU=  1.07D-07    CP:  9.85D-01  7.22D-01  6.57D-01  7.75D-01  7.04D-01
                    CP:  8.49D-01  8.85D-01  1.16D+00  1.05D+00  1.07D+00
                    CP:  9.85D-01  8.59D-01  8.26D-01
 E= -1467.54831546548     Delta-E=       -0.000000001127 Rises=F Damp=F
 DIIS: error= 5.55D-07 at cycle  14 NSaved=  14.
 NSaved=14 IEnMin=14 EnMin= -1467.54831546548     IErMin=14 ErrMin= 5.55D-07
 ErrMax= 5.55D-07  0.00D+00 EMaxC= 1.00D-01 BMatC= 8.80D-10 BMatP= 4.08D-09
 IDIUse=1 WtCom= 1.00D+00 WtEn= 0.00D+00
 Coeff-Com:  0.190D-06-0.113D-04-0.283D-04-0.450D-04 0.335D-03 0.164D-02
 Coeff-Com:  0.401D-02 0.172D-02-0.117D-01-0.393D-01-0.522D-01 0.208D-01
 Coeff-Com:  0.375D+00 0.700D+00
 Coeff:      0.190D-06-0.113D-04-0.283D-04-0.450D-04 0.335D-03 0.164D-02
 Coeff:      0.401D-02 0.172D-02-0.117D-01-0.393D-01-0.522D-01 0.208D-01
 Coeff:      0.375D+00 0.700D+00
 Gap=     0.147 Goal=   None    Shift=    0.000
 Gap=     0.206 Goal=   None    Shift=    0.000
 RMSDP=7.30D-08 MaxDP=4.81D-06 DE=-1.13D-09 OVMax= 6.12D-06

 Cycle  15  Pass 1  IDiag  1:
 RMSU=  3.50D-08    CP:  9.85D-01  7.22D-01  6.57D-01  7.75D-01  7.04D-01
                    CP:  8.49D-01  8.85D-01  1.16D+00  1.05D+00  1.08D+00
                    CP:  1.01D+00  9.46D-01  9.48D-01  8.12D-01
 E= -1467.54831546581     Delta-E=       -0.000000000327 Rises=F Damp=F
 DIIS: error= 1.37D-07 at cycle  15 NSaved=  15.
 NSaved=15 IEnMin=15 EnMin= -1467.54831546581     IErMin=15 ErrMin= 1.37D-07
 ErrMax= 1.37D-07  0.00D+00 EMaxC= 1.00D-01 BMatC= 6.03D-11 BMatP= 8.80D-10
 IDIUse=1 WtCom= 1.00D+00 WtEn= 0.00D+00
 Coeff-Com:  0.832D-06-0.239D-05-0.198D-04-0.500D-04-0.134D-04 0.207D-03
 Coeff-Com:  0.868D-03 0.215D-02 0.495D-03-0.793D-02-0.261D-01-0.405D-01
 Coeff-Com:  0.401D-01 0.224D+00 0.807D+00
 Coeff:      0.832D-06-0.239D-05-0.198D-04-0.500D-04-0.134D-04 0.207D-03
 Coeff:      0.868D-03 0.215D-02 0.495D-03-0.793D-02-0.261D-01-0.405D-01
 Coeff:      0.401D-01 0.224D+00 0.807D+00
 Gap=     0.147 Goal=   None    Shift=    0.000
 Gap=     0.206 Goal=   None    Shift=    0.000
 RMSDP=2.09D-08 MaxDP=1.25D-06 DE=-3.27D-10 OVMax= 2.18D-06

 Cycle  16  Pass 1  IDiag  1:
 RMSU=  1.44D-08    CP:  9.85D-01  7.22D-01  6.57D-01  7.75D-01  7.04D-01
                    CP:  8.49D-01  8.85D-01  1.16D+00  1.05D+00  1.08D+00
                    CP:  1.01D+00  9.48D-01  9.96D-01  8.93D-01  9.38D-01
 E= -1467.54831546575     Delta-E=        0.000000000056 Rises=F Damp=F
 DIIS: error= 4.88D-08 at cycle  16 NSaved=  16.
 NSaved=16 IEnMin=15 EnMin= -1467.54831546581     IErMin=16 ErrMin= 4.88D-08
 ErrMax= 4.88D-08  0.00D+00 EMaxC= 1.00D-01 BMatC= 1.19D-11 BMatP= 6.03D-11
 IDIUse=1 WtCom= 1.00D+00 WtEn= 0.00D+00
 Coeff-Com:  0.158D-06 0.984D-06-0.358D-05-0.114D-04-0.554D-04-0.159D-03
 Coeff-Com: -0.269D-03 0.594D-03 0.184D-02 0.304D-02-0.239D-02-0.195D-01
 Coeff-Com: -0.378D-01-0.234D-01 0.318D+00 0.760D+00
 Coeff:      0.158D-06 0.984D-06-0.358D-05-0.114D-04-0.554D-04-0.159D-03
 Coeff:     -0.269D-03 0.594D-03 0.184D-02 0.304D-02-0.239D-02-0.195D-01
 Coeff:     -0.378D-01-0.234D-01 0.318D+00 0.760D+00
 Gap=     0.147 Goal=   None    Shift=    0.000
 Gap=     0.206 Goal=   None    Shift=    0.000
 RMSDP=8.92D-09 MaxDP=4.90D-07 DE= 5.59D-11 OVMax= 1.31D-06

 SCF Done:  E(UPBE1PBE) =  -1467.54831547     A.U. after   16 cycles
            NFock= 16  Conv=0.89D-08     -V/T= 2.0053
 <Sx>= 0.0000 <Sy>= 0.0000 <Sz>= 0.5000 <S**2>= 0.7550 S= 0.5025
 <L.S>=  0.00000000000    
 KE= 1.459869964342D+03 PE=-6.496756194642D+03 EE= 2.048650214075D+03
 Annihilation of the first spin contaminant:
 S**2 before annihilation     0.7550,   after     0.7500
 Leave Link  502 at Mon Jun 17 21:36:07 2019, MaxMem=  8053063680 cpu:               0.0 elap:             156.5
 (Enter /data2/g16/g16/l601.exe)
 Copying SCF densities to generalized density rwf, IOpCl= 1 IROHF=0.

 **********************************************************************

            Population analysis using the SCF Density.

 **********************************************************************

 Orbital symmetries:
 Alpha Orbitals:
       Occupied  (A) (A) (A) (A) (A) (A) (A) (A) (A) (A) (A) (A)
                 (A) (A) (A) (A) (A) (A) (A) (A) (A) (A) (A) (A)
                 (A) (A) (A) (A) (A) (A) (A) (A) (A) (A) (A) (A)
                 (A) (A) (A) (A) (A) (A) (A) (A) (A) (A) (A) (A)
                 (A) (A) (A) (A) (A) (A) (A) (A) (A) (A) (A) (A)
                 (A) (A) (A) (A) (A) (A) (A) (A) (A) (A) (A)
       Virtual   (A) (A) (A) (A) (A) (A) (A) (A) (A) (A) (A) (A)
                 (A) (A) (A) (A) (A) (A) (A) (A) (A) (A) (A) (A)
                 (A) (A) (A) (A) (A) (A) (A) (A) (A) (A) (A) (A)
                 (A) (A) (A) (A) (A) (A) (A) (A) (A) (A) (A) (A)
                 (A) (A) (A) (A) (A) (A) (A) (A) (A) (A) (A) (A)
                 (A) (A) (A) (A) (A) (A) (A) (A) (A) (A) (A) (A)
                 (A) (A) (A) (A) (A) (A) (A) (A) (A) (A) (A) (A)
                 (A) (A) (A) (A) (A) (A) (A) (A) (A) (A) (A) (A)
                 (A) (A) (A) (A) (A) (A) (A) (A) (A) (A) (A) (A)
                 (A) (A) (A) (A) (A) (A) (A) (A) (A) (A) (A) (A)
                 (A) (A) (A) (A) (A) (A) (A) (A) (A) (A) (A) (A)
                 (A) (A) (A) (A) (A) (A) (A) (A) (A) (A) (A) (A)
                 (A) (A) (A) (A) (A) (A) (A) (A) (A) (A) (A) (A)
                 (A) (A) (A) (A) (A) (A) (A) (A) (A) (A) (A) (A)
                 (A) (A) (A) (A) (A) (A) (A) (A) (A) (A) (A) (A)
                 (A) (A) (A) (A) (A) (A) (A) (A) (A) (A) (A) (A)
                 (A) (A) (A) (A) (A) (A) (A) (A) (A) (A) (A) (A)
                 (A) (A) (A) (A) (A) (A) (A) (A) (A) (A) (A) (A)
                 (A) (A) (A) (A) (A) (A) (A) (A) (A) (A) (A) (A)
                 (A) (A) (A) (A) (A) (A) (A) (A) (A) (A) (A) (A)
                 (A) (A) (A) (A) (A) (A) (A) (A) (A) (A) (A) (A)
                 (A) (A) (A) (A) (A) (A) (A) (A) (A) (A) (A) (A)
                 (A) (A) (A) (A) (A) (A) (A) (A) (A) (A) (A) (A)
                 (A) (A) (A) (A) (A) (A) (A) (A) (A) (A) (A) (A)
                 (A) (A) (A) (A) (A) (A) (A) (A) (A) (A) (A) (A)
                 (A) (A) (A) (A) (A) (A) (A) (A) (A) (A) (A) (A)
                 (A) (A) (A) (A) (A) (A) (A) (A) (A) (A) (A) (A)
                 (A) (A) (A) (A) (A) (A) (A) (A) (A) (A) (A) (A)
                 (A) (A) (A) (A) (A) (A) (A) (A) (A) (A) (A) (A)
                 (A) (A) (A) (A) (A) (A) (A) (A) (A) (A) (A) (A)
                 (A) (A) (A) (A) (A) (A) (A)
 Beta  Orbitals:
       Occupied  (A) (A) (A) (A) (A) (A) (A) (A) (A) (A) (A) (A)
                 (A) (A) (A) (A) (A) (A) (A) (A) (A) (A) (A) (A)
                 (A) (A) (A) (A) (A) (A) (A) (A) (A) (A) (A) (A)
                 (A) (A) (A) (A) (A) (A) (A) (A) (A) (A) (A) (A)
                 (A) (A) (A) (A) (A) (A) (A) (A) (A) (A) (A) (A)
                 (A) (A) (A) (A) (A) (A) (A) (A) (A) (A)
       Virtual   (A) (A) (A) (A) (A) (A) (A) (A) (A) (A) (A) (A)
                 (A) (A) (A) (A) (A) (A) (A) (A) (A) (A) (A) (A)
                 (A) (A) (A) (A) (A) (A) (A) (A) (A) (A) (A) (A)
                 (A) (A) (A) (A) (A) (A) (A) (A) (A) (A) (A) (A)
                 (A) (A) (A) (A) (A) (A) (A) (A) (A) (A) (A) (A)
                 (A) (A) (A) (A) (A) (A) (A) (A) (A) (A) (A) (A)
                 (A) (A) (A) (A) (A) (A) (A) (A) (A) (A) (A) (A)
                 (A) (A) (A) (A) (A) (A) (A) (A) (A) (A) (A) (A)
                 (A) (A) (A) (A) (A) (A) (A) (A) (A) (A) (A) (A)
                 (A) (A) (A) (A) (A) (A) (A) (A) (A) (A) (A) (A)
                 (A) (A) (A) (A) (A) (A) (A) (A) (A) (A) (A) (A)
                 (A) (A) (A) (A) (A) (A) (A) (A) (A) (A) (A) (A)
                 (A) (A) (A) (A) (A) (A) (A) (A) (A) (A) (A) (A)
                 (A) (A) (A) (A) (A) (A) (A) (A) (A) (A) (A) (A)
                 (A) (A) (A) (A) (A) (A) (A) (A) (A) (A) (A) (A)
                 (A) (A) (A) (A) (A) (A) (A) (A) (A) (A) (A) (A)
                 (A) (A) (A) (A) (A) (A) (A) (A) (A) (A) (A) (A)
                 (A) (A) (A) (A) (A) (A) (A) (A) (A) (A) (A) (A)
                 (A) (A) (A) (A) (A) (A) (A) (A) (A) (A) (A) (A)
                 (A) (A) (A) (A) (A) (A) (A) (A) (A) (A) (A) (A)
                 (A) (A) (A) (A) (A) (A) (A) (A) (A) (A) (A) (A)
                 (A) (A) (A) (A) (A) (A) (A) (A) (A) (A) (A) (A)
                 (A) (A) (A) (A) (A) (A) (A) (A) (A) (A) (A) (A)
                 (A) (A) (A) (A) (A) (A) (A) (A) (A) (A) (A) (A)
                 (A) (A) (A) (A) (A) (A) (A) (A) (A) (A) (A) (A)
                 (A) (A) (A) (A) (A) (A) (A) (A) (A) (A) (A) (A)
                 (A) (A) (A) (A) (A) (A) (A) (A) (A) (A) (A) (A)
                 (A) (A) (A) (A) (A) (A) (A) (A) (A) (A) (A) (A)
                 (A) (A) (A) (A) (A) (A) (A) (A) (A) (A) (A) (A)
                 (A) (A) (A) (A) (A) (A) (A) (A) (A) (A) (A) (A)
                 (A) (A) (A) (A) (A) (A) (A) (A)
 The electronic state is 2-A.
 Alpha  occ. eigenvalues --  -89.28824 -89.08215 -19.24729 -19.24263 -19.22640
 Alpha  occ. eigenvalues --  -14.48518 -10.29840 -10.29718 -10.29152 -10.28747
 Alpha  occ. eigenvalues --  -10.26179 -10.24916 -10.23169 -10.22752 -10.22642
 Alpha  occ. eigenvalues --  -10.22474  -8.22139  -8.04458  -6.15860  -6.15819
 Alpha  occ. eigenvalues --   -6.15704  -5.98301  -5.97920  -5.97200  -1.14663
 Alpha  occ. eigenvalues --   -1.13431  -1.04428  -0.93286  -0.85920  -0.84044
 Alpha  occ. eigenvalues --   -0.82282  -0.77272  -0.74920  -0.72039  -0.71209
 Alpha  occ. eigenvalues --   -0.70628  -0.64491  -0.62470  -0.59021  -0.56412
 Alpha  occ. eigenvalues --   -0.53119  -0.51822  -0.51305  -0.50772  -0.50182
 Alpha  occ. eigenvalues --   -0.48479  -0.47412  -0.46380  -0.46162  -0.45208
 Alpha  occ. eigenvalues --   -0.44653  -0.44022  -0.42704  -0.42369  -0.41615
 Alpha  occ. eigenvalues --   -0.40521  -0.40050  -0.39131  -0.38886  -0.36475
 Alpha  occ. eigenvalues --   -0.36399  -0.36125  -0.35732  -0.35643  -0.34603
 Alpha  occ. eigenvalues --   -0.33581  -0.31772  -0.28364  -0.27202  -0.26934
 Alpha  occ. eigenvalues --   -0.20163
 Alpha virt. eigenvalues --   -0.05430  -0.02508   0.00429   0.01046   0.02613
 Alpha virt. eigenvalues --    0.03427   0.03746   0.04533   0.04781   0.05006
 Alpha virt. eigenvalues --    0.05449   0.05832   0.06166   0.06281   0.06845
 Alpha virt. eigenvalues --    0.07847   0.08232   0.08322   0.09007   0.09229
 Alpha virt. eigenvalues --    0.09404   0.09742   0.10270   0.10844   0.10961
 Alpha virt. eigenvalues --    0.11366   0.11880   0.12562   0.12999   0.13685
 Alpha virt. eigenvalues --    0.14031   0.14317   0.14811   0.15137   0.15461
 Alpha virt. eigenvalues --    0.16012   0.16500   0.16566   0.17141   0.17631
 Alpha virt. eigenvalues --    0.18522   0.18757   0.19257   0.19469   0.19691
 Alpha virt. eigenvalues --    0.20057   0.20905   0.21333   0.21840   0.22409
 Alpha virt. eigenvalues --    0.23146   0.23505   0.24207   0.24305   0.25170
 Alpha virt. eigenvalues --    0.25904   0.26297   0.26593   0.27146   0.27601
 Alpha virt. eigenvalues --    0.27993   0.28589   0.28811   0.29367   0.29653
 Alpha virt. eigenvalues --    0.30237   0.30636   0.31406   0.31469   0.32030
 Alpha virt. eigenvalues --    0.32620   0.32979   0.33741   0.34267   0.34978
 Alpha virt. eigenvalues --    0.35599   0.36787   0.37790   0.37870   0.40605
 Alpha virt. eigenvalues --    0.41546   0.42057   0.42209   0.42924   0.44524
 Alpha virt. eigenvalues --    0.46169   0.47330   0.47575   0.48119   0.49858
 Alpha virt. eigenvalues --    0.50589   0.51177   0.51739   0.52073   0.52316
 Alpha virt. eigenvalues --    0.53020   0.53765   0.54372   0.55447   0.56170
 Alpha virt. eigenvalues --    0.56904   0.57436   0.58383   0.59825   0.60287
 Alpha virt. eigenvalues --    0.60538   0.61772   0.62485   0.63313   0.63912
 Alpha virt. eigenvalues --    0.64515   0.65010   0.65505   0.65704   0.66792
 Alpha virt. eigenvalues --    0.68138   0.68421   0.68591   0.70089   0.71036
 Alpha virt. eigenvalues --    0.72099   0.72635   0.72942   0.73334   0.74194
 Alpha virt. eigenvalues --    0.74908   0.75706   0.76461   0.77500   0.78498
 Alpha virt. eigenvalues --    0.78969   0.79564   0.80620   0.81773   0.82392
 Alpha virt. eigenvalues --    0.82844   0.83321   0.83891   0.84729   0.85484
 Alpha virt. eigenvalues --    0.86036   0.86974   0.88044   0.88694   0.88771
 Alpha virt. eigenvalues --    0.89045   0.89688   0.90336   0.91081   0.91822
 Alpha virt. eigenvalues --    0.92155   0.92820   0.94347   0.94979   0.95144
 Alpha virt. eigenvalues --    0.95881   0.97726   0.97792   0.98303   0.99087
 Alpha virt. eigenvalues --    1.00113   1.01482   1.02156   1.03326   1.04055
 Alpha virt. eigenvalues --    1.04815   1.07287   1.08585   1.09015   1.11250
 Alpha virt. eigenvalues --    1.12433   1.14261   1.14949   1.15609   1.17151
 Alpha virt. eigenvalues --    1.18644   1.20148   1.22074   1.22289   1.23569
 Alpha virt. eigenvalues --    1.25671   1.28981   1.30197   1.30738   1.32315
 Alpha virt. eigenvalues --    1.36107   1.37941   1.39555   1.40151   1.41397
 Alpha virt. eigenvalues --    1.44292   1.45196   1.45798   1.48008   1.48808
 Alpha virt. eigenvalues --    1.50072   1.50229   1.50720   1.52906   1.56139
 Alpha virt. eigenvalues --    1.57238   1.59408   1.62685   1.63086   1.63393
 Alpha virt. eigenvalues --    1.65233   1.65586   1.66740   1.68129   1.68553
 Alpha virt. eigenvalues --    1.69221   1.71541   1.72203   1.73092   1.74502
 Alpha virt. eigenvalues --    1.75227   1.76446   1.77898   1.78848   1.79426
 Alpha virt. eigenvalues --    1.79657   1.80087   1.80718   1.82135   1.82529
 Alpha virt. eigenvalues --    1.83966   1.85055   1.85400   1.86164   1.86471
 Alpha virt. eigenvalues --    1.87659   1.89493   1.92288   1.92332   1.93837
 Alpha virt. eigenvalues --    1.95130   1.95936   1.97907   1.98309   1.99449
 Alpha virt. eigenvalues --    1.99882   2.01525   2.03239   2.03829   2.05548
 Alpha virt. eigenvalues --    2.06508   2.07373   2.10175   2.11724   2.13543
 Alpha virt. eigenvalues --    2.14603   2.16146   2.16814   2.24459   2.25647
 Alpha virt. eigenvalues --    2.28080   2.28677   2.30767   2.33129   2.34495
 Alpha virt. eigenvalues --    2.36411   2.38729   2.39429   2.40270   2.40982
 Alpha virt. eigenvalues --    2.42896   2.44741   2.47167   2.48666   2.49612
 Alpha virt. eigenvalues --    2.53794   2.54190   2.55054   2.58103   2.58550
 Alpha virt. eigenvalues --    2.60633   2.63657   2.65194   2.66100   2.67462
 Alpha virt. eigenvalues --    2.70605   2.75494   2.75701   2.76694   2.80437
 Alpha virt. eigenvalues --    2.82520   2.82690   2.83170   2.83220   2.84110
 Alpha virt. eigenvalues --    2.84300   2.85325   2.86327   2.87019   2.87749
 Alpha virt. eigenvalues --    2.88395   2.89621   2.91318   2.92985   2.93502
 Alpha virt. eigenvalues --    2.94397   2.95737   2.96777   2.97995   2.98431
 Alpha virt. eigenvalues --    2.99209   3.02913   3.03578   3.03982   3.06499
 Alpha virt. eigenvalues --    3.08152   3.15621   3.18030   3.19384   3.20290
 Alpha virt. eigenvalues --    3.26185   3.28172   3.29458   3.31123   3.31806
 Alpha virt. eigenvalues --    3.34564   3.35572   3.37182   3.38456   3.40836
 Alpha virt. eigenvalues --    3.42151   3.43494   3.44900   3.47748   3.50070
 Alpha virt. eigenvalues --    3.53478   3.57064   3.60125   3.63315   3.64819
 Alpha virt. eigenvalues --    3.77067   3.93818   4.47030   4.56896   4.62133
 Alpha virt. eigenvalues --    4.64120   4.72258   4.73979   4.74629   4.86597
 Alpha virt. eigenvalues --    4.91269   5.03054   5.44481   5.81675   5.84347
 Alpha virt. eigenvalues --    6.07890  22.21303  22.63215  58.49120  58.49224
 Alpha virt. eigenvalues --   58.50351  58.50612  58.50843  58.55739  58.56162
 Alpha virt. eigenvalues --   58.56248  58.56482  58.56757  95.61891 106.32197
 Alpha virt. eigenvalues --  106.33228 106.39087
  Beta  occ. eigenvalues --  -89.28824 -89.08215 -19.24729 -19.24263 -19.21209
  Beta  occ. eigenvalues --  -14.47324 -10.29842 -10.29718 -10.29217 -10.28811
  Beta  occ. eigenvalues --  -10.26178 -10.24912 -10.23121 -10.22701 -10.22597
  Beta  occ. eigenvalues --  -10.22420  -8.22139  -8.04458  -6.15860  -6.15819
  Beta  occ. eigenvalues --   -6.15704  -5.98300  -5.97919  -5.97200  -1.14663
  Beta  occ. eigenvalues --   -1.10795  -1.04428  -0.92337  -0.85727  -0.83942
  Beta  occ. eigenvalues --   -0.82145  -0.77071  -0.73854  -0.71801  -0.71083
  Beta  occ. eigenvalues --   -0.70160  -0.64438  -0.62340  -0.58641  -0.55899
  Beta  occ. eigenvalues --   -0.53033  -0.51814  -0.51024  -0.50421  -0.48393
  Beta  occ. eigenvalues --   -0.47494  -0.47155  -0.46371  -0.46093  -0.44947
  Beta  occ. eigenvalues --   -0.44300  -0.43892  -0.42497  -0.41581  -0.41118
  Beta  occ. eigenvalues --   -0.40212  -0.40015  -0.38779  -0.37645  -0.36345
  Beta  occ. eigenvalues --   -0.36089  -0.35702  -0.35644  -0.34575  -0.33579
  Beta  occ. eigenvalues --   -0.32711  -0.31769  -0.28271  -0.26744  -0.26008
  Beta virt. eigenvalues --   -0.05432  -0.03810  -0.02463   0.00440   0.01052
  Beta virt. eigenvalues --    0.02633   0.03448   0.03785   0.04567   0.04869
  Beta virt. eigenvalues --    0.05041   0.05476   0.05877   0.06194   0.06310
  Beta virt. eigenvalues --    0.06918   0.07865   0.08273   0.08434   0.09037
  Beta virt. eigenvalues --    0.09316   0.09439   0.09817   0.10319   0.10907
  Beta virt. eigenvalues --    0.10975   0.11402   0.11973   0.12668   0.13092
  Beta virt. eigenvalues --    0.13742   0.14080   0.14368   0.14937   0.15241
  Beta virt. eigenvalues --    0.15691   0.16097   0.16580   0.16874   0.17317
  Beta virt. eigenvalues --    0.17736   0.18565   0.18904   0.19331   0.19745
  Beta virt. eigenvalues --    0.19819   0.20239   0.20999   0.21463   0.21934
  Beta virt. eigenvalues --    0.22505   0.23330   0.23550   0.24348   0.24680
  Beta virt. eigenvalues --    0.25348   0.26064   0.26375   0.26673   0.27189
  Beta virt. eigenvalues --    0.27668   0.28065   0.28740   0.29023   0.29429
  Beta virt. eigenvalues --    0.30000   0.30524   0.30753   0.31526   0.31825
  Beta virt. eigenvalues --    0.32107   0.32749   0.33220   0.33970   0.34327
  Beta virt. eigenvalues --    0.35065   0.35791   0.36818   0.37874   0.37951
  Beta virt. eigenvalues --    0.40633   0.41588   0.42210   0.42561   0.43043
  Beta virt. eigenvalues --    0.44676   0.46228   0.47403   0.47621   0.48177
  Beta virt. eigenvalues --    0.50029   0.50643   0.51391   0.51847   0.52163
  Beta virt. eigenvalues --    0.52386   0.53077   0.53989   0.54401   0.55504
  Beta virt. eigenvalues --    0.56252   0.56967   0.57511   0.58505   0.59998
  Beta virt. eigenvalues --    0.60399   0.60676   0.61827   0.62529   0.63484
  Beta virt. eigenvalues --    0.63984   0.64582   0.65084   0.65638   0.65972
  Beta virt. eigenvalues --    0.66864   0.68210   0.68615   0.68778   0.70300
  Beta virt. eigenvalues --    0.71286   0.72228   0.72748   0.73006   0.73417
  Beta virt. eigenvalues --    0.74399   0.74936   0.75834   0.76533   0.77540
  Beta virt. eigenvalues --    0.78744   0.78998   0.79763   0.80718   0.81966
  Beta virt. eigenvalues --    0.82517   0.82890   0.83382   0.84002   0.84811
  Beta virt. eigenvalues --    0.85533   0.86154   0.87076   0.88068   0.88762
  Beta virt. eigenvalues --    0.88815   0.89085   0.89738   0.90396   0.91147
  Beta virt. eigenvalues --    0.91894   0.92273   0.93113   0.94480   0.95068
  Beta virt. eigenvalues --    0.95230   0.96070   0.97793   0.98111   0.98881
  Beta virt. eigenvalues --    0.99629   1.00434   1.01780   1.02190   1.03430
  Beta virt. eigenvalues --    1.04162   1.04942   1.07347   1.08645   1.09378
  Beta virt. eigenvalues --    1.11566   1.12461   1.14342   1.15023   1.15741
  Beta virt. eigenvalues --    1.17388   1.18877   1.20644   1.22429   1.23001
  Beta virt. eigenvalues --    1.24107   1.26078   1.29412   1.30439   1.31850
  Beta virt. eigenvalues --    1.32596   1.36512   1.38223   1.39597   1.40214
  Beta virt. eigenvalues --    1.41483   1.44319   1.45394   1.46080   1.48328
  Beta virt. eigenvalues --    1.48872   1.50151   1.50284   1.50773   1.52946
  Beta virt. eigenvalues --    1.56322   1.57314   1.59535   1.62702   1.63106
  Beta virt. eigenvalues --    1.63409   1.65620   1.65779   1.67228   1.68228
  Beta virt. eigenvalues --    1.68569   1.69564   1.71653   1.72296   1.73198
  Beta virt. eigenvalues --    1.74578   1.75291   1.76525   1.77986   1.78903
  Beta virt. eigenvalues --    1.79473   1.79739   1.80168   1.80744   1.82218
  Beta virt. eigenvalues --    1.82647   1.84087   1.85101   1.85501   1.86305
  Beta virt. eigenvalues --    1.86625   1.87807   1.89593   1.92476   1.92668
  Beta virt. eigenvalues --    1.93882   1.95139   1.95953   1.98009   1.98483
  Beta virt. eigenvalues --    1.99772   2.00121   2.01901   2.03549   2.03996
  Beta virt. eigenvalues --    2.06138   2.06854   2.07568   2.10431   2.12418
  Beta virt. eigenvalues --    2.13646   2.14854   2.16194   2.17211   2.25202
  Beta virt. eigenvalues --    2.25874   2.28139   2.29877   2.30844   2.33204
  Beta virt. eigenvalues --    2.34661   2.36506   2.38733   2.39431   2.40386
  Beta virt. eigenvalues --    2.41369   2.43161   2.44841   2.47333   2.49183
  Beta virt. eigenvalues --    2.49752   2.53892   2.55225   2.55458   2.58490
  Beta virt. eigenvalues --    2.58761   2.60685   2.63707   2.65329   2.66153
  Beta virt. eigenvalues --    2.68341   2.70796   2.75710   2.75924   2.76958
  Beta virt. eigenvalues --    2.80636   2.82537   2.82742   2.83186   2.84026
  Beta virt. eigenvalues --    2.84226   2.85347   2.86037   2.86925   2.87043
  Beta virt. eigenvalues --    2.87889   2.89518   2.89922   2.91591   2.93054
  Beta virt. eigenvalues --    2.94534   2.94913   2.96372   2.96949   2.98154
  Beta virt. eigenvalues --    2.98497   2.99713   3.03111   3.04065   3.04446
  Beta virt. eigenvalues --    3.06611   3.08260   3.15963   3.19009   3.19532
  Beta virt. eigenvalues --    3.23923   3.26194   3.28175   3.29733   3.31156
  Beta virt. eigenvalues --    3.31922   3.34611   3.35582   3.37231   3.38483
  Beta virt. eigenvalues --    3.40917   3.42204   3.43652   3.44947   3.47846
  Beta virt. eigenvalues --    3.50197   3.53654   3.57089   3.60173   3.63423
  Beta virt. eigenvalues --    3.64842   3.77087   3.95522   4.47101   4.56956
  Beta virt. eigenvalues --    4.62133   4.64238   4.72335   4.74081   4.74732
  Beta virt. eigenvalues --    4.86724   4.91307   5.03057   5.46374   5.81688
  Beta virt. eigenvalues --    5.84349   6.10392  22.21303  22.63215  58.49118
  Beta virt. eigenvalues --   58.49224  58.50335  58.50573  58.50788  58.55782
  Beta virt. eigenvalues --   58.56209  58.56289  58.56530  58.56759  95.62822
  Beta virt. eigenvalues --  106.32200 106.33228 106.40227
          Condensed to atoms (all electrons):
               1          2          3          4          5          6
     1  O    8.662810  -0.008204  -0.091050  -0.001806   0.038521  -0.003594
     2  N   -0.008204   7.368781   0.081881  -0.058771  -0.023882   0.016404
     3  C   -0.091050   0.081881   5.451388   0.245662  -0.112547   0.018525
     4  C   -0.001806  -0.058771   0.245662   5.176255   0.614523  -0.031185
     5  C    0.038521  -0.023882  -0.112547   0.614523   5.427357   0.191992
     6  C   -0.003594   0.016404   0.018525  -0.031185   0.191992   5.224739
     7  S   -0.000768   0.005305   0.000012  -0.002807  -0.133257   0.258837
     8  C   -0.073504   0.053790  -0.137773  -0.066287   0.202505  -0.076804
     9  C   -0.010299  -0.089193   0.006792  -0.002351  -0.070235   0.010130
    10  C   -0.011682  -0.085677   0.017974  -0.011169  -0.072909   0.004304
    11  C   -0.008119  -0.105739   0.305727  -0.041537  -0.004859  -0.002666
    12  C   -0.001088  -0.089313   0.311729  -0.075581  -0.008152  -0.001450
    13  H   -0.000572   0.002600  -0.035242   0.405555  -0.048953  -0.001746
    14  H    0.000074  -0.002641   0.003725   0.024256  -0.084398   0.420402
    15  H    0.000101  -0.002403  -0.000381   0.004729  -0.062983   0.407650
    16  H   -0.001032   0.018138  -0.002739   0.002919  -0.001569  -0.000435
    17  H   -0.000674   0.005440  -0.000390   0.001135  -0.005533   0.002315
    18  H    0.007412  -0.021712   0.001163  -0.000909   0.008257  -0.001027
    19  H    0.008077  -0.027633  -0.001370  -0.001524   0.020534  -0.001463
    20  H   -0.000368   0.005601  -0.000705   0.001381  -0.004212   0.002656
    21  H   -0.000693   0.003785   0.000721   0.001061   0.000951   0.002884
    22  H   -0.000476   0.001590  -0.058117   0.000535   0.008495  -0.000730
    23  H   -0.000297   0.005661  -0.047831   0.003125   0.001048  -0.000041
    24  H    0.006283  -0.024385  -0.032063   0.014704  -0.002536   0.000093
    25  H    0.007941  -0.028817  -0.027920   0.016139  -0.001005   0.000025
    26  H   -0.000916   0.010768  -0.048555  -0.001434  -0.000256  -0.000018
    27  H   -0.000532   0.014233  -0.062059  -0.005352   0.004210  -0.000617
    28  S    0.000008  -0.002544   0.000962  -0.030243  -0.008850  -0.003954
    29  O    0.000008   0.006653  -0.005505   0.027932   0.013472   0.005146
    30  O    0.000096   0.000049  -0.007672   0.025051   0.022753  -0.023982
    31  C    0.000002   0.000245  -0.000755   0.002685   0.005017  -0.000426
    32  H    0.000000  -0.000010   0.000030  -0.000090  -0.000518   0.000220
    33  H   -0.000000   0.000006   0.000013  -0.000031   0.000145   0.000177
    34  H    0.000000  -0.000003  -0.000020  -0.000428  -0.000044  -0.000398
               7          8          9         10         11         12
     1  O   -0.000768  -0.073504  -0.010299  -0.011682  -0.008119  -0.001088
     2  N    0.005305   0.053790  -0.089193  -0.085677  -0.105739  -0.089313
     3  C    0.000012  -0.137773   0.006792   0.017974   0.305727   0.311729
     4  C   -0.002807  -0.066287  -0.002351  -0.011169  -0.041537  -0.075581
     5  C   -0.133257   0.202505  -0.070235  -0.072909  -0.004859  -0.008152
     6  C    0.258837  -0.076804   0.010130   0.004304  -0.002666  -0.001450
     7  S   15.874413  -0.001932   0.002562  -0.000739  -0.000226   0.000974
     8  C   -0.001932   5.451354   0.326383   0.321236   0.014442   0.022106
     9  C    0.002562   0.326383   5.011897  -0.084773  -0.005200   0.004823
    10  C   -0.000739   0.321236  -0.084773   5.031570   0.005125  -0.006224
    11  C   -0.000226   0.014442  -0.005200   0.005125   5.029100  -0.080430
    12  C    0.000974   0.022106   0.004823  -0.006224  -0.080430   5.023822
    13  H    0.000012   0.012768  -0.000913  -0.001550  -0.001010   0.003192
    14  H   -0.041728   0.003094  -0.000018  -0.001844  -0.000199  -0.000050
    15  H   -0.042285   0.007908  -0.001077   0.005893   0.000303  -0.000058
    16  H    0.000522  -0.065684   0.412828   0.009218   0.000134  -0.001282
    17  H    0.000894  -0.033466   0.398818  -0.004236   0.000164  -0.000168
    18  H    0.000244  -0.035507   0.411395  -0.004214   0.000025  -0.000282
    19  H    0.000102  -0.040630  -0.002358   0.416720  -0.000097   0.000029
    20  H   -0.000423  -0.038625  -0.003748   0.401927  -0.000062   0.000134
    21  H   -0.000933  -0.056836   0.008468   0.409626  -0.001080  -0.000042
    22  H   -0.000000  -0.002482   0.000092  -0.001310   0.412218   0.008627
    23  H    0.000004  -0.000996   0.000123  -0.000058   0.406637  -0.002419
    24  H   -0.000014   0.000952  -0.000119  -0.000077   0.412246  -0.003843
    25  H   -0.000050  -0.003008  -0.000189   0.000089  -0.004233   0.408974
    26  H   -0.000004  -0.001048  -0.000145   0.000207  -0.002531   0.406005
    27  H   -0.000005   0.000277  -0.001280   0.000063   0.009057   0.412001
    28  S    0.310431   0.004728  -0.003845  -0.000175  -0.000683   0.002319
    29  O   -0.074543  -0.009711  -0.000553   0.000155   0.000245  -0.007179
    30  O   -0.082411  -0.004643   0.000752   0.000036   0.001004   0.000703
    31  C   -0.052774  -0.001306   0.000271   0.000052   0.000050  -0.000218
    32  H   -0.000830   0.000154  -0.000075  -0.000002  -0.000000  -0.000008
    33  H    0.001575  -0.000040  -0.000001   0.000001  -0.000000  -0.000006
    34  H    0.002393   0.000122   0.000001  -0.000001  -0.000000   0.000010
              13         14         15         16         17         18
     1  O   -0.000572   0.000074   0.000101  -0.001032  -0.000674   0.007412
     2  N    0.002600  -0.002641  -0.002403   0.018138   0.005440  -0.021712
     3  C   -0.035242   0.003725  -0.000381  -0.002739  -0.000390   0.001163
     4  C    0.405555   0.024256   0.004729   0.002919   0.001135  -0.000909
     5  C   -0.048953  -0.084398  -0.062983  -0.001569  -0.005533   0.008257
     6  C   -0.001746   0.420402   0.407650  -0.000435   0.002315  -0.001027
     7  S    0.000012  -0.041728  -0.042285   0.000522   0.000894   0.000244
     8  C    0.012768   0.003094   0.007908  -0.065684  -0.033466  -0.035507
     9  C   -0.000913  -0.000018  -0.001077   0.412828   0.398818   0.411395
    10  C   -0.001550  -0.001844   0.005893   0.009218  -0.004236  -0.004214
    11  C   -0.001010  -0.000199   0.000303   0.000134   0.000164   0.000025
    12  C    0.003192  -0.000050  -0.000058  -0.001282  -0.000168  -0.000282
    13  H    0.508786   0.002252  -0.000015  -0.000030  -0.000001   0.000004
    14  H    0.002252   0.490570  -0.014289  -0.000040  -0.000016   0.000001
    15  H   -0.000015  -0.014289   0.530523   0.000092  -0.000054   0.000013
    16  H   -0.000030  -0.000040   0.000092   0.537170  -0.019895  -0.015404
    17  H   -0.000001  -0.000016  -0.000054  -0.019895   0.566192  -0.020836
    18  H    0.000004   0.000001   0.000013  -0.015404  -0.020836   0.528785
    19  H    0.000005   0.000004  -0.000034  -0.000013  -0.000259   0.001891
    20  H    0.000002   0.000013  -0.000144   0.000080   0.001208  -0.000160
    21  H   -0.000020   0.000002  -0.000188  -0.000139   0.000086   0.000036
    22  H    0.000159   0.000004   0.000001  -0.000001  -0.000000  -0.000000
    23  H    0.000578   0.000001   0.000000   0.000000  -0.000000   0.000000
    24  H    0.000002   0.000000  -0.000000  -0.000000   0.000000  -0.000002
    25  H   -0.000030  -0.000000   0.000000   0.000006   0.000000  -0.000007
    26  H    0.000104  -0.000001   0.000000   0.000007  -0.000000  -0.000000
    27  H   -0.000187  -0.000002   0.000000   0.000229   0.000009   0.000000
    28  S    0.002976  -0.013288   0.003106  -0.000958  -0.000907   0.000350
    29  O   -0.000325   0.000948  -0.000801  -0.000024   0.000161   0.000007
    30  O   -0.000829   0.011297  -0.001305   0.000083   0.000026  -0.000010
    31  C   -0.000098   0.000423  -0.000079   0.000035   0.000046  -0.000002
    32  H    0.000000   0.000005  -0.000000  -0.000000  -0.000000   0.000000
    33  H    0.000000  -0.000011   0.000000   0.000000   0.000000  -0.000000
    34  H    0.000001   0.000028  -0.000000  -0.000000  -0.000000   0.000000
              19         20         21         22         23         24
     1  O    0.008077  -0.000368  -0.000693  -0.000476  -0.000297   0.006283
     2  N   -0.027633   0.005601   0.003785   0.001590   0.005661  -0.024385
     3  C   -0.001370  -0.000705   0.000721  -0.058117  -0.047831  -0.032063
     4  C   -0.001524   0.001381   0.001061   0.000535   0.003125   0.014704
[...]
     6  C   -0.048764  -0.000714
     7  S   -0.022549   0.000763
     8  C    0.228465  -0.034684
     9  C    0.059254   0.020866
    10  C    0.039198   0.022527
    11  C    0.044134   0.021184
    12  C    0.055381   0.021791
    28  S    0.891307  -0.000074
    29  O   -0.510644   0.000025
    30  O   -0.570809   0.000052
    31  C    0.150997  -0.000004
 Electronic spatial extent (au):  <R**2>=           4773.4930
 Charge=             -0.0000 electrons
 Dipole moment (field-independent basis, Debye):
    X=              4.2541    Y=              1.8582    Z=             -2.0392  Tot=              5.0703
 Quadrupole moment (field-independent basis, Debye-Ang):
   XX=           -108.2921   YY=           -109.0667   ZZ=           -115.9072
   XY=              5.7323   XZ=              6.3289   YZ=             -0.6176
 Traceless Quadrupole moment (field-independent basis, Debye-Ang):
   XX=              2.7966   YY=              2.0220   ZZ=             -4.8185
   XY=              5.7323   XZ=              6.3289   YZ=             -0.6176
 Octapole moment (field-independent basis, Debye-Ang**2):
  XXX=            190.3696  YYY=             -3.8148  ZZZ=              0.3946  XYY=            -14.2385
  XXY=             -7.8342  XXZ=             -8.2473  XZZ=             -1.0376  YZZ=              6.0442
  YYZ=             -2.3196  XYZ=              0.5297
 Hexadecapole moment (field-independent basis, Debye-Ang**3):
 XXXX=          -3992.6783 YYYY=          -1374.5299 ZZZZ=           -667.7960 XXXY=            -13.7962
 XXXZ=            119.9737 YYYX=            -15.5721 YYYZ=              0.8408 ZZZX=            -12.0541
 ZZZY=             -1.8128 XXYY=           -938.1265 XXZZ=           -855.4351 YYZZ=           -347.6717
 XXYZ=             -4.2850 YYXZ=             -4.4281 ZZXY=             14.8592
 N-N= 1.520687700759D+03 E-N=-6.496756177386D+03  KE= 1.459869964342D+03
                          Isotropic Fermi Contact Couplings
        Atom                 a.u.       MegaHertz       Gauss      10(-4) cm-1
     1  O(17)              0.08653     -52.45161     -18.71604     -17.49597
     2  N(14)              0.10783      34.83911      12.43146      11.62108
     3  C(13)             -0.01461     -16.42601      -5.86121      -5.47913
     4  C(13)              0.00036       0.40354       0.14399       0.13461
     5  C(13)             -0.00025      -0.28200      -0.10062      -0.09406
     6  C(13)             -0.00053      -0.59395      -0.21194      -0.19812
     7  S(33)              0.00000       0.00100       0.00036       0.00033
     8  C(13)             -0.01452     -16.32671      -5.82578      -5.44600
     9  C(13)              0.01747      19.64114       7.00845       6.55158
    10  C(13)              0.01296      14.56520       5.19722       4.85843
    11  C(13)              0.01170      13.15706       4.69477       4.38872
    12  C(13)              0.01859      20.89360       7.45536       6.96936
    13  H(1)              -0.00025      -1.13426      -0.40473      -0.37835
    14  H(1)              -0.00003      -0.15364      -0.05482      -0.05125
    15  H(1)               0.00006       0.25771       0.09196       0.08596
    16  H(1)              -0.00033      -1.46300      -0.52203      -0.48800
    17  H(1)               0.00044       1.96458       0.70101       0.65531
    18  H(1)              -0.00050      -2.22885      -0.79531      -0.74346
    19  H(1)              -0.00051      -2.28084      -0.81386      -0.76080
    20  H(1)               0.00021       0.93975       0.33533       0.31347
    21  H(1)              -0.00039      -1.76155      -0.62856      -0.58759
    22  H(1)              -0.00039      -1.73764      -0.62003      -0.57962
    23  H(1)               0.00016       0.70261       0.25071       0.23436
    24  H(1)              -0.00047      -2.12015      -0.75652      -0.70721
    25  H(1)              -0.00049      -2.17173      -0.77493      -0.72441
    26  H(1)               0.00049       2.19289       0.78248       0.73147
    27  H(1)              -0.00033      -1.49548      -0.53363      -0.49884
    28  S(33)             -0.00001      -0.00491      -0.00175      -0.00164
    29  O(17)             -0.00001       0.00494       0.00176       0.00165
    30  O(17)             -0.00001       0.00753       0.00269       0.00251
    31  C(13)              0.00001       0.01438       0.00513       0.00480
    32  H(1)              -0.00000      -0.00061      -0.00022      -0.00020
    33  H(1)               0.00000       0.00679       0.00242       0.00227
    34  H(1)               0.00000       0.00043       0.00015       0.00014
 --------------------------------------------------------
       Center         ----  Spin Dipole Couplings  ----
                      3XX-RR        3YY-RR        3ZZ-RR
 --------------------------------------------------------
     1   Atom       -0.624853     -0.912041      1.536894
     2   Atom       -0.316086     -0.568478      0.884563
     3   Atom       -0.007732      0.010355     -0.002623
     4   Atom        0.007141     -0.005557     -0.001584
     5   Atom        0.009726     -0.006886     -0.002840
     6   Atom        0.002035     -0.001308     -0.000726
     7   Atom        0.003349     -0.001490     -0.001859
     8   Atom        0.000114      0.005613     -0.005728
     9   Atom       -0.010455      0.002224      0.008231
    10   Atom       -0.006918      0.016944     -0.010026
    11   Atom        0.002443      0.000243     -0.002686
    12   Atom       -0.016552      0.018772     -0.002220
    13   Atom        0.001611     -0.001182     -0.000430
    14   Atom        0.001405     -0.001229     -0.000176
    15   Atom        0.001137     -0.000669     -0.000468
    16   Atom        0.003473     -0.003301     -0.000172
    17   Atom        0.000391      0.002177     -0.002568
    18   Atom       -0.002335      0.003945     -0.001609
    19   Atom       -0.005015      0.010420     -0.005405
    20   Atom       -0.001155      0.003909     -0.002754
    21   Atom       -0.005345      0.000409      0.004936
    22   Atom       -0.005141     -0.002173      0.007314
    23   Atom       -0.002534      0.003476     -0.000942
    24   Atom       -0.002501      0.005275     -0.002773
    25   Atom       -0.004360      0.008604     -0.004243
    26   Atom       -0.002625      0.005254     -0.002630
    27   Atom        0.000137      0.001752     -0.001889
    28   Atom        0.001437     -0.000736     -0.000700
    29   Atom        0.001510     -0.000710     -0.000801
    30   Atom        0.001127     -0.000625     -0.000502
    31   Atom        0.000679     -0.000336     -0.000342
    32   Atom        0.000630     -0.000314     -0.000316
    33   Atom        0.000525     -0.000252     -0.000273
    34   Atom        0.000554     -0.000287     -0.000267
 --------------------------------------------------------
                        XY            XZ            YZ
 --------------------------------------------------------
     1   Atom       -0.188499      1.071264     -0.481192
     2   Atom       -0.130171      0.663168     -0.289067
     3   Atom       -0.006832     -0.002532      0.008380
     4   Atom       -0.006219     -0.006284      0.003657
     5   Atom        0.002113     -0.006907     -0.001854
     6   Atom        0.000899     -0.001849     -0.000424
     7   Atom        0.001552      0.000538      0.000374
     8   Atom        0.012143     -0.003080     -0.004507
     9   Atom        0.010744      0.008645      0.021835
    10   Atom       -0.012672      0.005483     -0.018079
    11   Atom        0.014022      0.014071      0.017165
    12   Atom       -0.005371      0.001081     -0.022443
    13   Atom       -0.002601     -0.002936      0.001941
    14   Atom        0.000294     -0.001660     -0.000238
    15   Atom        0.001535     -0.001639     -0.000965
    16   Atom        0.003899      0.007375      0.001989
    17   Atom        0.005124      0.000610      0.001024
    18   Atom        0.004917      0.002150      0.008031
    19   Atom       -0.000892     -0.001367     -0.005581
    20   Atom        0.003164     -0.000998     -0.003343
    21   Atom        0.000768      0.000202     -0.007271
    22   Atom        0.000797      0.002943      0.005501
    23   Atom       -0.000834      0.000014      0.004777
    24   Atom        0.005338      0.001719      0.007402
    25   Atom       -0.001219     -0.001150     -0.005702
    26   Atom       -0.003463     -0.000563      0.000612
    27   Atom       -0.006303      0.005194     -0.003988
    28   Atom       -0.000186     -0.000197      0.000029
    29   Atom       -0.000546      0.000327     -0.000077
    30   Atom       -0.000334     -0.000568      0.000140
    31   Atom       -0.000040     -0.000053      0.000001
    32   Atom        0.000043      0.000066      0.000003
    33   Atom       -0.000121     -0.000026      0.000004
    34   Atom        0.000025     -0.000141     -0.000004
 --------------------------------------------------------


 ---------------------------------------------------------------------------------
              Anisotropic Spin Dipole Couplings in Principal Axis System
 ---------------------------------------------------------------------------------

       Atom             a.u.   MegaHertz   Gauss  10(-4) cm-1        Axes

              Baa    -1.0669    77.204    27.548    25.752  0.9082 -0.1304 -0.3977
     1 O(17)  Bbb    -1.0005    72.395    25.832    24.148  0.1868  0.9766  0.1064
              Bcc     2.0674  -149.598   -53.380   -49.901  0.3746 -0.1709  0.9113
 
              Baa    -0.6244   -24.083    -8.593    -8.033  0.1812  0.9775  0.1076
     2 N(14)  Bbb    -0.6101   -23.529    -8.396    -7.849  0.8986 -0.1201 -0.4219
              Bcc     1.2345    47.612    16.989    15.882  0.3995 -0.1732  0.9002
 
              Baa    -0.0100    -1.347    -0.481    -0.449  0.9379  0.3408 -0.0649
     3 C(13)  Bbb    -0.0066    -0.883    -0.315    -0.295  0.1972 -0.3697  0.9080
              Bcc     0.0166     2.231     0.796     0.744 -0.2855  0.8644  0.4139
 
              Baa    -0.0084    -1.121    -0.400    -0.374  0.2717  0.9294 -0.2497
     4 C(13)  Bbb    -0.0048    -0.649    -0.232    -0.217  0.4976  0.0865  0.8631
              Bcc     0.0132     1.771     0.632     0.591  0.8238 -0.3588 -0.4389
 
              Baa    -0.0076    -1.026    -0.366    -0.342  0.0665  0.8950  0.4411
     5 C(13)  Bbb    -0.0055    -0.738    -0.263    -0.246  0.4222 -0.4258  0.8003
              Bcc     0.0131     1.763     0.629     0.588  0.9041  0.1330 -0.4062
 
              Baa    -0.0017    -0.222    -0.079    -0.074  0.4746 -0.1751  0.8626
     6 C(13)  Bbb    -0.0015    -0.205    -0.073    -0.068 -0.1099  0.9606  0.2555
              Bcc     0.0032     0.427     0.152     0.142  0.8733  0.2160 -0.4366
 
              Baa    -0.0021    -0.088    -0.031    -0.029 -0.1346  0.7143 -0.6868
     7 S(33)  Bbb    -0.0017    -0.071    -0.025    -0.024 -0.2718  0.6399  0.7188
              Bcc     0.0039     0.159     0.057     0.053  0.9529  0.2834  0.1080
 
              Baa    -0.0096    -1.295    -0.462    -0.432  0.7523 -0.6421 -0.1473
     8 C(13)  Bbb    -0.0070    -0.938    -0.335    -0.313  0.2640  0.0890  0.9604
              Bcc     0.0166     2.233     0.797     0.745  0.6036  0.7614 -0.2365
 
              Baa    -0.0183    -2.460    -0.878    -0.821 -0.5263  0.7329 -0.4311
     9 C(13)  Bbb    -0.0133    -1.788    -0.638    -0.596  0.7927  0.2395 -0.5606
              Bcc     0.0317     4.248     1.516     1.417  0.3076  0.6368  0.7070
 
              Baa    -0.0192    -2.573    -0.918    -0.858  0.0965  0.4724  0.8761
    10 C(13)  Bbb    -0.0119    -1.590    -0.568    -0.531  0.9349  0.2590 -0.2426
              Bcc     0.0310     4.163     1.485     1.389 -0.3416  0.8425 -0.4167
 
              Baa    -0.0185    -2.487    -0.887    -0.829 -0.0914 -0.6339  0.7680
    11 C(13)  Bbb    -0.0117    -1.566    -0.559    -0.522  0.8082 -0.4978 -0.3147
              Bcc     0.0302     4.053     1.446     1.352  0.5818  0.5919  0.5578
 
              Baa    -0.0188    -2.519    -0.899    -0.840  0.7528  0.4138  0.5120
    12 C(13)  Bbb    -0.0148    -1.987    -0.709    -0.663 -0.6504  0.3474  0.6755
              Bcc     0.0336     4.505     1.608     1.503 -0.1016  0.8415 -0.5307
 
              Baa    -0.0028    -1.503    -0.536    -0.501  0.2273  0.8733 -0.4309
    13 H(1)   Bbb    -0.0025    -1.335    -0.476    -0.445  0.6483  0.1944  0.7361
              Bcc     0.0053     2.838     1.013     0.947  0.7267 -0.4466 -0.5220
 
              Baa    -0.0013    -0.691    -0.246    -0.230  0.2118  0.8433  0.4939
    14 H(1)   Bbb    -0.0012    -0.639    -0.228    -0.213  0.4985 -0.5279  0.6876
              Bcc     0.0025     1.329     0.474     0.443  0.8406  0.1006 -0.5322
 
              Baa    -0.0016    -0.829    -0.296    -0.277 -0.3212  0.8947  0.3104
    15 H(1)   Bbb    -0.0015    -0.795    -0.284    -0.265  0.5622 -0.0836  0.8228
              Bcc     0.0030     1.624     0.580     0.542  0.7621  0.4388 -0.4762
 
              Baa    -0.0063    -3.376    -1.205    -1.126  0.6469 -0.4114 -0.6421
    16 H(1)   Bbb    -0.0043    -2.269    -0.810    -0.757  0.0469  0.8619 -0.5049
              Bcc     0.0106     5.646     2.015     1.883  0.7611  0.2965  0.5769
 
              Baa    -0.0039    -2.106    -0.751    -0.702  0.7453 -0.6491  0.1523
    17 H(1)   Bbb    -0.0027    -1.434    -0.512    -0.478 -0.1981  0.0024  0.9802
              Bcc     0.0066     3.540     1.263     1.181  0.6366  0.7607  0.1268
 
              Baa    -0.0077    -4.085    -1.457    -1.362  0.2825 -0.6241  0.7285
    18 H(1)   Bbb    -0.0040    -2.130    -0.760    -0.710  0.8920 -0.1086 -0.4389
              Bcc     0.0116     6.214     2.217     2.073  0.3530  0.7738  0.5260
 
              Baa    -0.0080    -4.271    -1.524    -1.425  0.4665  0.2770  0.8400
    19 H(1)   Bbb    -0.0042    -2.239    -0.799    -0.747  0.8842 -0.1186 -0.4519
              Bcc     0.0122     6.510     2.323     2.172 -0.0255  0.9535 -0.3003
 
              Baa    -0.0042    -2.234    -0.797    -0.745 -0.1530  0.4277  0.8909
    20 H(1)   Bbb    -0.0025    -1.336    -0.477    -0.446  0.9086 -0.2935  0.2970
              Bcc     0.0067     3.570     1.274     1.191  0.3885  0.8550 -0.3437
 
              Baa    -0.0059    -3.154    -1.126    -1.052  0.7956 -0.4963 -0.3474
    21 H(1)   Bbb    -0.0044    -2.338    -0.834    -0.780  0.6055  0.6337  0.4814
              Bcc     0.0103     5.492     1.960     1.832 -0.0188 -0.5934  0.8047
 
              Baa    -0.0059    -3.159    -1.127    -1.054  0.9115  0.2662 -0.3134
    22 H(1)   Bbb    -0.0045    -2.399    -0.856    -0.800 -0.3647  0.8755 -0.3169
              Bcc     0.0104     5.558     1.983     1.854  0.1900  0.4032  0.8952
 
              Baa    -0.0041    -2.205    -0.787    -0.736 -0.2844 -0.5319  0.7976
    23 H(1)   Bbb    -0.0025    -1.307    -0.467    -0.436  0.9557 -0.0912  0.2800
              Bcc     0.0066     3.513     1.253     1.172 -0.0762  0.8419  0.5343
 
              Baa    -0.0076    -4.073    -1.453    -1.359  0.3427 -0.5700  0.7468
    24 H(1)   Bbb    -0.0041    -2.213    -0.790    -0.738  0.8681 -0.1118 -0.4837
              Bcc     0.0118     6.286     2.243     2.097  0.3592  0.8140  0.4564
 
              Baa    -0.0072    -3.849    -1.373    -1.284  0.4709  0.3311  0.8177
    25 H(1)   Bbb    -0.0036    -1.916    -0.684    -0.639  0.8809 -0.1254 -0.4564
              Bcc     0.0108     5.765     2.057     1.923 -0.0486  0.9352 -0.3507
 
              Baa    -0.0040    -2.136    -0.762    -0.713  0.9164  0.3276  0.2300
    26 H(1)   Bbb    -0.0026    -1.398    -0.499    -0.466 -0.1870 -0.1576  0.9696
              Bcc     0.0066     3.534     1.261     1.179 -0.3538  0.9316  0.0831
 
              Baa    -0.0064    -3.437    -1.227    -1.147  0.7450  0.2779 -0.6065
    27 H(1)   Bbb    -0.0042    -2.232    -0.796    -0.744  0.2619  0.7143  0.6490
              Bcc     0.0106     5.669     2.023     1.891 -0.6135  0.6423 -0.4593
 
              Baa    -0.0008    -0.031    -0.011    -0.010  0.0525  0.9491 -0.3105
    28 S(33)  Bbb    -0.0007    -0.029    -0.010    -0.010  0.1129  0.3033  0.9462
              Bcc     0.0015     0.060     0.022     0.020  0.9922 -0.0847 -0.0912
 
              Baa    -0.0008     0.061     0.022     0.020 -0.1125  0.1061  0.9880
    29 O(17)  Bbb    -0.0008     0.061     0.022     0.020  0.2360  0.9687 -0.0771
              Bcc     0.0017    -0.122    -0.043    -0.041  0.9652 -0.2245  0.1340
 
              Baa    -0.0007     0.052     0.019     0.017 -0.0703  0.7430 -0.6656
    30 O(17)  Bbb    -0.0007     0.047     0.017     0.016  0.3397  0.6452  0.6844
              Bcc     0.0014    -0.099    -0.035    -0.033  0.9379 -0.1780 -0.2978
 
              Baa    -0.0003    -0.046    -0.017    -0.015  0.0544  0.0788  0.9954
    31 C(13)  Bbb    -0.0003    -0.045    -0.016    -0.015  0.0347  0.9961 -0.0808
              Bcc     0.0007     0.092     0.033     0.031  0.9979 -0.0389 -0.0515
 
              Baa    -0.0003    -0.171    -0.061    -0.057 -0.0703  0.0277  0.9971
    32 H(1)   Bbb    -0.0003    -0.169    -0.060    -0.056 -0.0432  0.9986 -0.0308
              Bcc     0.0006     0.340     0.121     0.113  0.9966  0.0453  0.0690
 
              Baa    -0.0003    -0.146    -0.052    -0.049  0.0348  0.0178  0.9992
    33 H(1)   Bbb    -0.0003    -0.144    -0.051    -0.048  0.1493  0.9885 -0.0228
              Bcc     0.0005     0.290     0.104     0.097  0.9882 -0.1500 -0.0317
 
              Baa    -0.0003    -0.155    -0.055    -0.052  0.1673 -0.1214  0.9784
    34 H(1)   Bbb    -0.0003    -0.153    -0.055    -0.051 -0.0090  0.9922  0.1246
              Bcc     0.0006     0.309     0.110     0.103  0.9859  0.0296 -0.1649
 

 ---------------------------------------------------------------------------------

 No NMR shielding tensors so no spin-rotation constants.
 Leave Link  601 at Mon Jun 17 21:36:08 2019, MaxMem=  8053063680 cpu:               0.0 elap:               0.3
 (Enter /data2/g16/g16/l9999.exe)
 1\1\GINC-CU09\SP\UPBE1PBE\Gen\C10H18N1O3S2(2)\ROOT\17-Jun-2019\0\\#p g
 en 6d pbe1pbe\\start preoptimized\\0,2\O,0,-3.767182,0.208649,0.863701
 \N,0,-2.606331,0.034469,0.385421\C,0,-2.160233,-1.267829,-0.155832\C,0
 ,-0.882283,-0.849392,-0.822339\C,0,-0.606404,0.449574,-0.658788\C,0,0.
 604645,1.125876,-1.199488\S,0,1.942067,1.440561,0.033285\C,0,-1.691506
 ,1.165435,0.117041\C,0,-1.231336,1.76631,1.449111\C,0,-2.427099,2.2180
 54,-0.716414\C,0,-3.214901,-1.807544,-1.12568\C,0,-1.913442,-2.260064,
 0.985931\H,0,-0.243033,-1.558474,-1.341613\H,0,1.061289,0.539749,-2.00
 3942\H,0,0.388848,2.129995,-1.583368\H,0,-0.660215,1.03934,2.036119\H,
 0,-0.602183,2.648065,1.289561\H,0,-2.115228,2.070791,2.020922\H,0,-3.3
 18192,2.542935,-0.172846\H,0,-1.789685,3.09253,-0.890269\H,0,-2.737398
 ,1.807868,-1.683986\H,0,-3.375085,-1.115158,-1.956764\H,0,-2.900184,-2
 .773333,-1.530176\H,0,-4.163369,-1.938448,-0.592038\H,0,-2.840151,-2.4
 08214,1.55257\H,0,-1.587977,-3.226613,0.587568\H,0,-1.137009,-1.88825,
 1.665199\S,0,2.758923,-0.534988,0.110376\O,0,2.337232,-1.21329,1.35322
 4\O,0,2.508439,-1.184162,-1.203459\C,0,4.510088,-0.16818,0.248146\H,0,
 4.659352,0.449418,1.134287\H,0,4.999613,-1.138787,0.364706\H,0,4.83039
 8,0.334714,-0.665895\\Version=AM64L-G16RevB.01\State=2-A\HF=-1467.5483
 155\S2=0.755028\S2-1=0.\S2A=0.750017\RMSD=8.920e-09\Dipole=1.6777595,0
 .7276367,-0.7968719\Quadrupole=2.0736763,1.4829495,-3.5566258,4.257371
 2,4.7241075,-0.4542464\PG=C01 [X(C10H18N1O3S2)]\\@


 IF YOU'RE NOT PART OF THE SOLUTION,
 THEN YOU'RE PART OF THE PRECIPITATE.
 Elapsed time:       0 days  0 hours  2 minutes 39.7 seconds.
 File lengths (MBytes):  RWF=    181 Int=      0 D2E=      0 Chk=     15 Scr=      1
 Normal termination of Gaussian 16 at Mon Jun 17 21:36:08 2019.
