 Entering Gaussian System, Link 0=g16
 AtFile(1): /home/malgo/Basis_sets/n07d_pbe0.gbs
            -H 0
             6-31G
             S   1 1.00       0.000000000000
                  0.4000000000D+00  0.10000000D+01
             P   1 1.00       0.000000000000
                  0.7500000000D+00  0.10000000D+01
             ****
             -He 0
             6-31+G**
             ****
             -Li 0
             6-31+G**
             ****
             -Be 0
             6-31+G**
             ****
             -B 0
             6-31G
             S   1 1.00       0.000000000000
                  0.7000000000D+01  0.1000000000D+01
             P   1 1.00       0.000000000000
                  0.3500000000D-01  0.1000000000D+01
             D   1 1.00
                  0.3430000000D+00  0.1000000000D+01
             ****
             -C 0
             6-31G
             S   1 1.00       0.000000000000
                  0.8700000000D+01  0.1000000000D+01
             P   1 1.00       0.000000000000
                  0.5000000000D-01  0.1000000000D+01
             D   1 1.00
                  0.8200000000D+00  0.1000000000D+01
             ****
             -N 0
             6-31G
             S   1 1.00       0.000000000000
                  0.1370000000D+02  0.1000000000D+01
             P   1 1.00       0.000000000000
                  0.5300000000D-01  0.1000000000D+01
             D   1 1.00       0.000000000000
                  0.1015000000D+01  0.1000000000D+01
             ****
             -O 0
             6-31G
             S   1 1.00
                  0.1600000000D+02  0.1000000000D+01
             P   1 1.00       0.000000000000
                  0.6500000000D-01  0.1000000000D+01
             D   1 1.00        0.000000000000
                  0.1190000000D+01  0.1000000000D+01
             D   1 1.00        0.000000000000
                  0.1800000000D+00  0.1000000000D+01
             ****
             -F 0
             6-31G
             S   1 1.00
                  0.1770000000D+02  0.1000000000D+01
             P   1 1.00       0.000000000000
                  0.8300000000D-01  0.1000000000D+01
             D   1 1.00       0.000000000000
                  1.3700000000D+00  0.1000000000D+01
             D   1 1.00       0.000000000000
                  0.2300000000D+00  0.1000000000D+01
             ****
             -Ne 0
             6-31+G**
             ****
             -Na 0
             6-31+G**
             ****
             -Mg 0
             6-31+G**
             ****
             -Al 0
             6-31G
             S   1 1.00      0.000000000000
                  0.3100000000D+01  0.1000000000D+01
             P   1 1.00      0.000000000000
                  0.1500000000D-01  0.1000000000D+01
             D   1 1.00      0.000000000000
                  0.1890000000D+00  0.1000000000D+01
             ****
             -Si 0
             6-31G
             S   1 1.00      0.000000000000
                  0.5000000000D+01  0.1000000000D+01
             P   1 1.00       0.000000000000
                  0.3300000000D-01  0.1000000000D+01
             D   1 1.0        0.000000000000
                  0.2750000000D+00  0.1000000000D+01
             ****
             -P  0
             6-31G
             S   1 1.00       0.000000000000
                  0.6300000000D+01  0.1000000000D+01
             P   1 1.00       0.000000000000
                  0.3500000000D-01  0.1000000000D+01
             D   1 1.00       0.000000000000
                  0.3730000000D+00  0.1000000000D+01
             ****
             -S  0
             6-31G
             S   1  1.00      0.000000000000
                  0.7500000000D+01  0.1000000000D+01
             P   1 1.00       0.000000000000
                  0.4100000000D-01  0.1000000000D+01
             D   1 1.00       0.000000000000
                  0.4790000000D+00  0.1000000000D+01
             ****
            -Cl 0
             6-31G
             S   1 1.00       0.000000000000
                  0.8500000000D+01  0.1000000000D+01
             P   1 1.00       0.000000000000
                  0.4800000000D-01  0.1000000000D+01
             D   1 1.00       0.000000000000
                  0.6000000000D+00  0.1000000000D+01
             D   1 1.00       0.000000000000
                  0.1960000000D+00  0.1000000000D+01
             ****
            -Br 0
             S   3 1.00       0.000000000000
                  0.4721881000D+01  0.1749732514D+00
                  0.2257555000D+01 -0.7074172290D+00
                  0.3896080000D+00  0.1258999543D+01
             S   1 1.00       0.000000000000
                  0.1471340000D+00  0.1000000000D+01
             P   3 1.00       0.000000000000
                  0.1896942000D+01 -0.2464576731D+00
                  0.9108990000D+00  0.3623179892D+00
                  0.3168550000D+00  0.8338469725D+00
             P   1 1.00       0.000000000000
                  0.1095030000D+00  0.1000000000D+01
             P   1 1.00       0.000000000000
                  0.3609700000D-01  0.1000000000D+01
             D   1 1.00
                  0.4750000000D+00  0.1000000000D+01
             D   1 1.00
                  0.1280000000D+00  0.1000000000D+01
             ****
            -I   0
             S   3 1.00       0.000000000000
                  0.2122765000D+01  0.2063429899D+01
                  0.1770481000D+01 -0.2869526473D+01
                  0.3130840000D+00  0.1404747074D+01
             S   1 1.00       0.000000000000
                  0.1320000000D+00  0.1000000000D+01
             P   3 1.00       0.000000000000
                  0.2432887000D+01  0.7732753148D+00
                  0.2137249000D+01 -0.1020833156D+01
                  0.3145460000D+00  0.1095666871D+01
             P   1 1.00       0.000000000000
                  0.1049450000D+00  0.1000000000D+01
             P   1 1.00       0.000000000000
                  0.3264100000D-01  0.1000000000D+01
             D   1 1.00
                  0.300000000          1.00000000
             D   1 1.00
                  0.090000000          1.00000000
             ****
             -Zn 0
             SP   6 1.00       0.000000000000
                  0.6936492000D+02 -0.4440098182D-02 -0.7689261805D-02
                  0.2362082000D+02  0.7505253308D-01 -0.2997981924D-01
                  0.1018471000D+02  0.2533111104D+00  0.7082410821D-01
                  0.4334082000D+01 -0.2881897118D+00  0.4046140897D+00
                  0.1810918000D+01 -0.7267052298D+00  0.4882324876D+00
                  0.7148410000D+00 -0.2133439088D+00  0.1751969956D+00
             SP   3 1.00       0.000000000000
                  0.2823842000D+01  0.4898545031D-01 -0.1586762981D+00
                  0.1039543000D+01  0.2592794075D+00  0.8379326898D-01
                  0.1432640000D+00 -0.1115711463D+01  0.9840546881D+00
             SP   1 1.00       0.000000000000
                  0.4929600000D-01  0.1000000000D+01  0.1000000000D+01
             S    1 1.00       0.000000000000
                  0.1620000000D+00  0.1000000000D+01
             D    3 1.00       0.000000000000
                  0.3370764000D+02  0.9262647815D-01
                  0.9061106000D+01  0.4002979920D+00
                  0.2738383000D+01  0.6896607863D+00
             D    1 1.00
                  0.2440000000D+01  0.1000000000D+01
             D    1 1.00       0.000000000000
                  0.7302940000D+00  0.1000000000D+01
             D    1 1.00       0.000000000000
                  0.1620000000D+00  0.1000000000D+01
            ****
 Initial command:
 /data2/g16/g16/l1.exe "/tmp/Gau-16765.inp" -scrdir="/tmp/"
 Entering Link 1 = /data2/g16/g16/l1.exe PID=     16766.
  
 Copyright (c) 1988-2017, Gaussian, Inc.  All Rights Reserved.
  
 This is part of the Gaussian(R) 16 program.  It is based on
 the Gaussian(R) 09 system (copyright 2009, Gaussian, Inc.),
 the Gaussian(R) 03 system (copyright 2003, Gaussian, Inc.),
 the Gaussian(R) 98 system (copyright 1998, Gaussian, Inc.),
 the Gaussian(R) 94 system (copyright 1995, Gaussian, Inc.),
 the Gaussian 92(TM) system (copyright 1992, Gaussian, Inc.),
 the Gaussian 90(TM) system (copyright 1990, Gaussian, Inc.),
 the Gaussian 88(TM) system (copyright 1988, Gaussian, Inc.),
 the Gaussian 86(TM) system (copyright 1986, Carnegie Mellon
 University), and the Gaussian 82(TM) system (copyright 1983,
 Carnegie Mellon University). Gaussian is a federally registered
 trademark of Gaussian, Inc.
  
 This software contains proprietary and confidential information,
 including trade secrets, belonging to Gaussian, Inc.
  
 This software is provided under written license and may be
 used, copied, transmitted, or stored only in accord with that
 written license.
  
 The following legend is applicable only to US Government
 contracts under FAR:
  
                    RESTRICTED RIGHTS LEGEND
  
 Use, reproduction and disclosure by the US Government is
 subject to restrictions as set forth in subparagraphs (a)
 and (c) of the Commercial Computer Software - Restricted
 Rights clause in FAR 52.227-19.
  
 Gaussian, Inc.
 340 Quinnipiac St., Bldg. 40, Wallingford CT 06492
  
  
 ---------------------------------------------------------------
 Warning -- This program may not be used in any manner that
 competes with the business of Gaussian, Inc. or will provide
 assistance to any competitor of Gaussian, Inc.  The licensee
 of this program is prohibited from giving any competitor of
 Gaussian, Inc. access to this program.  By using this program,
 the user acknowledges that Gaussian, Inc. is engaged in the
 business of creating and licensing software in the field of
 computational chemistry and represents and warrants to the
 licensee that it is not a competitor of Gaussian, Inc. and that
 it will not use this program in any manner prohibited above.
 ---------------------------------------------------------------
  

 Cite this work as:
 Gaussian 16, Revision B.01,
 M. J. Frisch, G. W. Trucks, H. B. Schlegel, G. E. Scuseria, 
 M. A. Robb, J. R. Cheeseman, G. Scalmani, V. Barone, 
 G. A. Petersson, H. Nakatsuji, X. Li, M. Caricato, A. V. Marenich, 
 J. Bloino, B. G. Janesko, R. Gomperts, B. Mennucci, H. P. Hratchian, 
 J. V. Ortiz, A. F. Izmaylov, J. L. Sonnenberg, D. Williams-Young, 
 F. Ding, F. Lipparini, F. Egidi, J. Goings, B. Peng, A. Petrone, 
 T. Henderson, D. Ranasinghe, V. G. Zakrzewski, J. Gao, N. Rega, 
 G. Zheng, W. Liang, M. Hada, M. Ehara, K. Toyota, R. Fukuda, 
 J. Hasegawa, M. Ishida, T. Nakajima, Y. Honda, O. Kitao, H. Nakai, 
 T. Vreven, K. Throssell, J. A. Montgomery, Jr., J. E. Peralta, 
 F. Ogliaro, M. J. Bearpark, J. J. Heyd, E. N. Brothers, K. N. Kudin, 
 V. N. Staroverov, T. A. Keith, R. Kobayashi, J. Normand, 
 K. Raghavachari, A. P. Rendell, J. C. Burant, S. S. Iyengar, 
 J. Tomasi, M. Cossi, J. M. Millam, M. Klene, C. Adamo, R. Cammi, 
 J. W. Ochterski, R. L. Martin, K. Morokuma, O. Farkas, 
 J. B. Foresman, and D. J. Fox, Gaussian, Inc., Wallingford CT, 2016.
 
 ******************************************
 Gaussian 16:  AM64L-G16RevB.01 20-Dec-2017
                17-Jun-2019 
 ******************************************
 %chk=MTN_PBE0_0.22.chk
 %mem=60GB
 %nprocshared=12
 Will use up to   12 processors via shared memory.
 -----------------
 #p gen 6d pbe1pbe
 -----------------
 1/38=1,172=1/1;
 2/12=2,17=6,18=5,40=1/2;
 3/5=7,8=2,11=2,25=1,30=1,74=-13/1,2,3;
 4//1;
 5/5=2,38=5/2;
 6/7=2,8=2,9=2,10=2,28=1/1;
 99/5=1,9=1/99;
 Leave Link    1 at Mon Jun 17 21:22:36 2019, MaxMem=  8053063680 cpu:               0.0 elap:               0.1
 (Enter /data2/g16/g16/l101.exe)
 ------------------
 start preoptimized
 ------------------
 Symbolic Z-matrix:
 Charge =  0 Multiplicity = 2
 O                    -3.67218   0.16865   1.0387 
 N                    -2.64133   0.04447   0.31542 
 C                    -2.17023  -1.26783  -0.17083 
 C                    -0.86228  -0.86439  -0.78234 
 C                    -0.5964    0.43957  -0.64879 
 C                     0.60965   1.12088  -1.19449 
 S                     1.94707   1.45056   0.03329 
 C                    -1.70151   1.16543   0.09204 
 C                    -1.28134   1.74631   1.44411 
 C                    -2.3871    2.23805  -0.76141 
 C                    -3.1549   -1.82754  -1.20068 
 C                    -2.01344  -2.23006   1.01093 
 H                    -0.20803  -1.57847  -1.27661 
 H                     1.06629   0.53475  -1.99394 
 H                     0.38385   2.11999  -1.58337 
 H                    -0.74522   1.00434   2.04112 
 H                    -0.63218   2.61807   1.30956 
 H                    -2.18023   2.05579   1.98592 
 H                    -3.29819   2.57294  -0.25285 
 H                    -1.73469   3.10753  -0.90027 
 H                    -2.6624    1.84287  -1.74399 
 H                    -3.25509  -1.15016  -2.05676 
 H                    -2.81018  -2.80333  -1.56518 
 H                    -4.13837  -1.95345  -0.73704 
 H                    -2.98015  -2.34321   1.51257 
 H                    -1.67798  -3.21161   0.65757 
 H                    -1.28201  -1.85325   1.7302 
 S                     2.75392  -0.52999   0.10538 
 O                     2.32723  -1.20829   1.34822 
 O                     2.49844  -1.16916  -1.20846 
 C                     4.51009  -0.18318   0.23815 
 H                     4.66935   0.42942   1.12929 
 H                     4.98961  -1.15879   0.34971 
 H                     4.8304    0.32471  -0.6709 
 
 ITRead=  0  0  0  0  0  0  0  0  0  0  0  0  0  0  0  0  0  0  0  0
 ITRead=  0  0  0  0  0  0  0  0  0  0  0  0  0  0
 MicOpt= -1 -1 -1 -1 -1 -1 -1 -1 -1 -1 -1 -1 -1 -1 -1 -1 -1 -1 -1 -1
 MicOpt= -1 -1 -1 -1 -1 -1 -1 -1 -1 -1 -1 -1 -1 -1
 NAtoms=     34 NQM=       34 NQMF=       0 NMMI=      0 NMMIF=      0
                NMic=       0 NMicF=      0.
                    Isotopes and Nuclear Properties:
 (Nuclear quadrupole moments (NQMom) in fm**2, nuclear magnetic moments (NMagM)
  in nuclear magnetons)

  Atom         1           2           3           4           5           6           7           8           9          10
 IAtWgt=          16          14          12          12          12          12          32          12          12          12
 AtmWgt=  15.9949146  14.0030740  12.0000000  12.0000000  12.0000000  12.0000000  31.9720718  12.0000000  12.0000000  12.0000000
 NucSpn=           0           2           0           0           0           0           0           0           0           0
 AtZEff=   0.0000000   0.0000000   0.0000000   0.0000000   0.0000000   0.0000000   0.0000000   0.0000000   0.0000000   0.0000000
 NQMom=    0.0000000   2.0440000   0.0000000   0.0000000   0.0000000   0.0000000   0.0000000   0.0000000   0.0000000   0.0000000
 NMagM=    0.0000000   0.4037610   0.0000000   0.0000000   0.0000000   0.0000000   0.0000000   0.0000000   0.0000000   0.0000000
 AtZNuc=   8.0000000   7.0000000   6.0000000   6.0000000   6.0000000   6.0000000  16.0000000   6.0000000   6.0000000   6.0000000

  Atom        11          12          13          14          15          16          17          18          19          20
 IAtWgt=          12          12           1           1           1           1           1           1           1           1
 AtmWgt=  12.0000000  12.0000000   1.0078250   1.0078250   1.0078250   1.0078250   1.0078250   1.0078250   1.0078250   1.0078250
 NucSpn=           0           0           1           1           1           1           1           1           1           1
 AtZEff=   0.0000000   0.0000000   0.0000000   0.0000000   0.0000000   0.0000000   0.0000000   0.0000000   0.0000000   0.0000000
 NQMom=    0.0000000   0.0000000   0.0000000   0.0000000   0.0000000   0.0000000   0.0000000   0.0000000   0.0000000   0.0000000
 NMagM=    0.0000000   0.0000000   2.7928460   2.7928460   2.7928460   2.7928460   2.7928460   2.7928460   2.7928460   2.7928460
 AtZNuc=   6.0000000   6.0000000   1.0000000   1.0000000   1.0000000   1.0000000   1.0000000   1.0000000   1.0000000   1.0000000

  Atom        21          22          23          24          25          26          27          28          29          30
 IAtWgt=           1           1           1           1           1           1           1          32          16          16
 AtmWgt=   1.0078250   1.0078250   1.0078250   1.0078250   1.0078250   1.0078250   1.0078250  31.9720718  15.9949146  15.9949146
 NucSpn=           1           1           1           1           1           1           1           0           0           0
 AtZEff=   0.0000000   0.0000000   0.0000000   0.0000000   0.0000000   0.0000000   0.0000000   0.0000000   0.0000000   0.0000000
 NQMom=    0.0000000   0.0000000   0.0000000   0.0000000   0.0000000   0.0000000   0.0000000   0.0000000   0.0000000   0.0000000
 NMagM=    2.7928460   2.7928460   2.7928460   2.7928460   2.7928460   2.7928460   2.7928460   0.0000000   0.0000000   0.0000000
 AtZNuc=   1.0000000   1.0000000   1.0000000   1.0000000   1.0000000   1.0000000   1.0000000  16.0000000   8.0000000   8.0000000

  Atom        31          32          33          34
 IAtWgt=          12           1           1           1
 AtmWgt=  12.0000000   1.0078250   1.0078250   1.0078250
 NucSpn=           0           1           1           1
 AtZEff=   0.0000000   0.0000000   0.0000000   0.0000000
 NQMom=    0.0000000   0.0000000   0.0000000   0.0000000
 NMagM=    0.0000000   2.7928460   2.7928460   2.7928460
 AtZNuc=   6.0000000   1.0000000   1.0000000   1.0000000
 Leave Link  101 at Mon Jun 17 21:22:36 2019, MaxMem=  8053063680 cpu:               0.0 elap:               0.2
 (Enter /data2/g16/g16/l202.exe)
                          Input orientation:                          
 ---------------------------------------------------------------------
 Center     Atomic      Atomic             Coordinates (Angstroms)
 Number     Number       Type             X           Y           Z
 ---------------------------------------------------------------------
      1          8           0       -3.672182    0.168649    1.038701
      2          7           0       -2.641331    0.044469    0.315421
      3          6           0       -2.170233   -1.267829   -0.170832
      4          6           0       -0.862283   -0.864392   -0.782339
      5          6           0       -0.596404    0.439574   -0.648788
      6          6           0        0.609645    1.120876   -1.194488
      7         16           0        1.947067    1.450561    0.033285
      8          6           0       -1.701506    1.165435    0.092041
      9          6           0       -1.281336    1.746310    1.444111
     10          6           0       -2.387099    2.238054   -0.761414
     11          6           0       -3.154901   -1.827544   -1.200680
     12          6           0       -2.013442   -2.230064    1.010931
     13          1           0       -0.208033   -1.578474   -1.276613
     14          1           0        1.066289    0.534749   -1.993942
     15          1           0        0.383848    2.119995   -1.583368
     16          1           0       -0.745215    1.004340    2.041119
     17          1           0       -0.632183    2.618065    1.309561
     18          1           0       -2.180228    2.055791    1.985922
     19          1           0       -3.298192    2.572935   -0.252846
     20          1           0       -1.734685    3.107530   -0.900269
     21          1           0       -2.662398    1.842868   -1.743986
     22          1           0       -3.255085   -1.150158   -2.056764
     23          1           0       -2.810184   -2.803333   -1.565176
     24          1           0       -4.138369   -1.953448   -0.737038
     25          1           0       -2.980151   -2.343214    1.512570
     26          1           0       -1.677977   -3.211613    0.657568
     27          1           0       -1.282009   -1.853250    1.730199
     28         16           0        2.753923   -0.529988    0.105376
     29          8           0        2.327232   -1.208290    1.348224
     30          8           0        2.498439   -1.169162   -1.208459
     31          6           0        4.510088   -0.183180    0.238146
     32          1           0        4.669352    0.429418    1.129287
     33          1           0        4.989613   -1.158787    0.349706
     34          1           0        4.830398    0.324714   -0.670895
 ---------------------------------------------------------------------
                    Distance matrix (angstroms):
                    1          2          3          4          5
     1  O    0.000000
     2  N    1.265389   0.000000
     3  C    2.404639   1.476652   0.000000
     4  C    3.504125   2.279499   1.499145   0.000000
     5  C    3.518726   2.295111   2.370781   1.337481   0.000000
     6  C    4.922186   3.742636   3.805457   2.505539   1.488797
     7  S    5.850651   4.807296   4.937962   3.730509   2.820738
     8  C    2.402772   1.479775   2.491903   2.364114   1.515570
     9  C    2.893012   2.453526   3.533159   3.456653   2.560648
    10  C    3.028909   2.456832   3.561886   3.456975   2.540434
    11  C    3.044207   2.463077   1.530829   2.521660   3.462704
    12  C    2.916507   2.459975   1.532006   2.531016   3.448134
    13  H    4.518124   3.330083   2.273649   1.087319   2.148840
    14  H    5.637735   4.395450   4.128934   2.673007   2.140805
    15  H    5.209067   4.130970   4.471682   3.331825   2.158274
    16  H    3.204740   2.737634   3.476515   3.387887   2.752582
    17  H    3.913387   3.412973   4.433659   4.068968   2.929545
    18  H    2.585432   2.654921   3.962088   4.234113   3.473090
    19  H    2.754733   2.673487   4.003809   4.246084   3.465207
    20  H    4.018771   3.417931   4.457078   4.068311   2.911514
    21  H    3.400885   2.734198   3.520437   3.390344   2.727091
    22  H    3.390446   2.726002   2.178874   2.726045   3.402680
    23  H    4.044242   3.416889   2.170600   2.857734   4.032001
    24  H    2.806043   2.709329   2.159681   3.452656   4.275495
    25  H    2.648191   2.692396   2.155519   3.455269   4.254131
    26  H    3.943132   3.412797   2.169530   2.871957   4.025858
    27  H    3.206115   2.729595   2.178435   2.732555   3.374415
    28  S    6.531004   5.429814   4.986784   3.738557   3.568404
    29  O    6.163176   5.227113   4.747449   3.851048   3.905273
    30  O    6.701942   5.496576   4.783608   3.401311   3.532608
    31  C    8.228865   7.155459   6.780149   5.510700   5.220224
    32  H    8.346101   7.365911   7.165953   5.993934   5.557863
    33  H    8.789965   7.725303   7.179571   5.967653   5.895365
    34  H    8.674154   7.541756   7.196881   5.816615   5.428062
                    6          7          8          9         10
     6  C    0.000000
     7  S    1.845214   0.000000
     8  C    2.645479   3.660169   0.000000
     9  C    3.305931   3.535602   1.530376   0.000000
    10  C    3.227401   4.476236   1.532623   2.515723   0.000000
    11  C    4.781739   6.188596   3.569511   4.824686   4.160716
    12  C    4.793043   5.494399   3.531441   4.066347   4.821297
    13  H    2.821672   3.941490   3.410676   4.428149   4.424889
    14  H    1.091419   2.392516   3.522752   4.335831   4.043051
    15  H    1.095651   2.346351   2.840226   3.475357   2.892697
    16  H    3.509755   3.388051   2.177005   1.092870   3.474482
    17  H    3.170800   3.105556   2.176222   1.095199   2.740999
    18  H    4.332720   4.605829   2.146787   1.094232   2.761136
    19  H    4.273916   5.371623   2.156249   2.762369   1.095845
    20  H    3.086947   4.143955   2.181172   2.748556   1.095862
    21  H    3.395510   4.955781   2.180189   3.475718   1.094262
    22  H    4.564784   6.180164   3.520361   4.953921   3.729787
    23  H    5.218434   6.578915   4.441470   5.665019   5.122560
    24  H    5.674889   7.015212   4.043897   5.158319   4.542712
    25  H    5.675801   6.392065   3.995429   4.428867   5.148857
    26  H    5.237727   5.938564   4.413493   5.035571   5.675847
    27  H    4.580128   4.921546   3.460058   3.610911   4.916109
    28  S    3.002154   2.139810   4.767125   4.822557   5.902837
    29  O    3.852337   2.990498   4.841828   4.664828   6.209088
    30  O    2.968503   2.951082   4.978070   5.461026   5.973060
    31  C    4.355050   3.046335   6.357988   6.222369   7.377851
    32  H    4.728558   3.107216   6.496571   6.102787   7.525916
    33  H    5.173540   4.020685   7.087981   6.997293   8.196889
    34  H    4.326983   3.174429   6.629831   6.621743   7.467351
                   11         12         13         14         15
    11  C    0.000000
    12  C    2.521145   0.000000
    13  H    2.958350   2.986123   0.000000
    14  H    4.901850   5.114508   2.569858   0.000000
    15  H    5.315285   5.603606   3.758071   1.774064   0.000000
    16  H    4.933094   3.623680   4.238731   4.447896   3.956814
    17  H    5.694634   5.049892   4.947640   4.258890   3.106353
    18  H    5.117100   4.398520   5.267027   5.356562   4.395275
    19  H    4.503680   5.129962   5.275545   5.121944   3.941175
    20  H    5.144144   5.676293   4.942766   3.957370   2.435166
    21  H    3.742949   4.959787   4.236499   3.959389   3.063040
    22  H    1.096252   3.481182   3.174369   4.638656   4.915266
    23  H    1.097202   2.756767   2.890456   5.133583   5.868674
    24  H    1.094543   2.765362   3.984882   5.904185   6.144889
    25  H    2.767341   1.094975   4.006121   6.078814   6.389175
    26  H    2.747733   1.095829   2.927274   5.347591   6.139948
    27  H    3.478281   1.092854   3.204660   5.008619   5.435208
    28  S    6.188993   5.141795   3.432550   2.896361   3.935927
    29  O    6.077349   4.472051   3.668020   3.974699   4.842360
    30  O    5.691553   5.138898   2.738096   2.360371   3.928181
    31  C    7.970333   6.880652   5.148010   4.166220   5.064423
    32  H    8.470039   7.193510   5.797316   4.769457   5.346222
    33  H    8.317694   7.115310   5.462287   4.873728   5.974969
    34  H    8.287212   7.496237   5.419853   3.995383   4.881337
                   16         17         18         19         20
    16  H    0.000000
    17  H    1.775405   0.000000
    18  H    1.779848   1.780466   0.000000
    19  H    3.773653   3.090430   2.555262   0.000000
    20  H    3.748896   2.517625   3.103991   1.774684   0.000000
    21  H    4.325013   3.747913   3.766967   1.777844   1.780977
    22  H    5.266304   5.693089   5.270364   4.137318   4.666584
    23  H    5.636296   6.511479   6.051300   5.555594   6.044593
    24  H    5.289628   6.113971   5.227124   4.629091   5.605162
    25  H    4.059608   5.492582   4.496130   5.233198   6.089630
    26  H    4.534150   5.958517   5.455486   6.075767   6.508582
    27  H    2.924148   4.537826   4.019054   5.252483   5.633260
    28  S    4.283133   4.777658   5.879503   6.810620   5.864338
    29  O    3.849125   4.837419   5.601614   6.964660   6.338864
    30  O    5.079878   5.521260   6.518767   6.965445   6.025314
    31  C    5.681472   5.952970   7.268290   8.294967   7.149962
    32  H    5.520825   5.738375   7.091943   8.365806   7.232086
    33  H    6.358321   6.840360   8.026041   9.109145   8.061022
    34  H    6.237337   6.246716   7.694425   8.444124   7.134213
                   21         22         23         24         25
    21  H    0.000000
    22  H    3.067134   0.000000
    23  H    4.651989   1.781175   0.000000
    24  H    4.195766   1.779647   1.781065   0.000000
    25  H    5.313135   3.773475   3.116588   2.560102   0.000000
    26  H    5.681930   3.755591   2.527682   3.095389   1.783480
    27  H    5.257064   4.327639   3.754660   3.775724   1.780762
    28  S    6.195734   6.416201   6.238440   7.087989   6.176373
    29  O    6.615719   6.539081   6.117606   6.834294   5.429860
    30  O    5.999446   5.815756   5.565900   6.699594   6.228752
    31  C    7.712216   8.154727   7.981451   8.881477   7.898961
    32  H    8.000506   8.685775   8.582207   9.313279   8.145507
    33  H    8.482143   8.588726   8.198057   9.226730   8.140777
    34  H    7.719994   8.334921   8.304391   9.253820   8.537566
                   26         27         28         29         30
    26  H    0.000000
    27  H    1.775522   0.000000
    28  S    5.209392   4.547507   0.000000
    29  O    4.531226   3.686258   1.478793   0.000000
    30  O    5.009602   4.836887   1.483232   2.562708   0.000000
    31  C    6.902135   6.209971   1.794998   2.654804   2.666751
    32  H    7.332681   6.402372   2.374389   2.866278   3.568386
    33  H    6.983239   6.459201   2.335251   2.843899   2.938356
    34  H    7.525249   6.918837   2.375892   3.562693   2.821112
                   31         32         33         34
    31  C    0.000000
    32  H    1.093057   0.000000
    33  H    1.092794   1.797974   0.000000
    34  H    1.089454   1.810402   1.807692   0.000000
 Stoichiometry    C10H18NO3S2(2)
 Framework group  C1[X(C10H18NO3S2)]
 Deg. of freedom    96
 Full point group                 C1      NOp   1
 Largest Abelian subgroup         C1      NOp   1
 Largest concise Abelian subgroup C1      NOp   1
                         Standard orientation:                         
 ---------------------------------------------------------------------
 Center     Atomic      Atomic             Coordinates (Angstroms)
 Number     Number       Type             X           Y           Z
 ---------------------------------------------------------------------
      1          8           0       -3.674166    0.175173    1.031104
      2          7           0       -2.641962    0.049627    0.309992
      3          6           0       -2.172316   -1.263160   -0.176347
      4          6           0       -0.862246   -0.861719   -0.784622
      5          6           0       -0.594156    0.441619   -0.649365
      6          6           0        0.614403    1.121064   -1.191819
      7         16           0        1.949743    1.447124    0.039184
      8          6           0       -1.699492    1.168972    0.089648
      9          6           0       -1.281191    1.747881    1.443140
     10          6           0       -2.381136    2.243638   -0.764395
     11          6           0       -3.155783   -1.820098   -1.208845
     12          6           0       -2.019984   -2.226704    1.004932
     13          1           0       -0.208281   -1.576636   -1.278065
     14          1           0        1.071682    0.534742   -1.990767
     15          1           0        0.391386    2.120948   -1.580337
     16          1           0       -0.747816    1.004371    2.040691
     17          1           0       -0.630067    2.618500    1.310771
     18          1           0       -2.180680    2.058629    1.983233
     19          1           0       -3.292703    2.579837   -0.257550
     20          1           0       -1.726746    3.111975   -0.901064
     21          1           0       -2.655025    1.849822   -1.747911
     22          1           0       -3.252775   -1.141789   -2.064566
     23          1           0       -2.812140   -2.796237   -1.573418
     24          1           0       -4.140512   -1.944505   -0.747481
     25          1           0       -2.988014   -2.338422    1.504340
     26          1           0       -1.685628   -3.208595    0.651466
     27          1           0       -1.289417   -1.851914    1.726134
     28         16           0        2.752628   -0.535035    0.111353
     29          8           0        2.321892   -1.213576    1.352674
     30          8           0        2.498816   -1.172593   -1.203591
     31          6           0        4.509160   -0.191722    0.248293
     32          1           0        4.667634    0.419807    1.140309
     33          1           0        4.986560   -1.168345    0.360072
     34          1           0        4.832451    0.316332   -0.659603
 ---------------------------------------------------------------------
 Rotational constants (GHZ):           0.7719304           0.2775312           0.2435915
 Leave Link  202 at Mon Jun 17 21:22:36 2019, MaxMem=  8053063680 cpu:               0.0 elap:               0.1
 (Enter /data2/g16/g16/l301.exe)
 General basis read from cards:  (6D, 7F)
 Centers:      13     14     15     16     17     18     19     20     21     22
 Centers:      23     24     25     26     27     32     33     34
 6-31G
 S 1 1.00 0.000000000000
     Exponent=  4.0000000000D-01 Coefficients=  1.0000000000D+00
 P 1 1.00 0.000000000000
     Exponent=  7.5000000000D-01 Coefficients=  1.0000000000D+00
 ****
 Centers:       3      4      5      6      8      9     10     11     12     31
 6-31G
 S 1 1.00 0.000000000000
     Exponent=  8.7000000000D+00 Coefficients=  1.0000000000D+00
 P 1 1.00 0.000000000000
     Exponent=  5.0000000000D-02 Coefficients=  1.0000000000D+00
 D 1 1.00
     Exponent=  8.2000000000D-01 Coefficients=  1.0000000000D+00
 ****
 Centers:       2
 6-31G
 S 1 1.00 0.000000000000
     Exponent=  1.3700000000D+01 Coefficients=  1.0000000000D+00
 P 1 1.00 0.000000000000
     Exponent=  5.3000000000D-02 Coefficients=  1.0000000000D+00
 D 1 1.00 0.000000000000
     Exponent=  1.0150000000D+00 Coefficients=  1.0000000000D+00
 ****
 Centers:       1     29     30
 6-31G
 S 1 1.00
     Exponent=  1.6000000000D+01 Coefficients=  1.0000000000D+00
 P 1 1.00 0.000000000000
     Exponent=  6.5000000000D-02 Coefficients=  1.0000000000D+00
 D 1 1.00 0.000000000000
     Exponent=  1.1900000000D+00 Coefficients=  1.0000000000D+00
 D 1 1.00 0.000000000000
     Exponent=  1.8000000000D-01 Coefficients=  1.0000000000D+00
 ****
 Centers:       7     28
 6-31G
 S 1 1.00 0.000000000000
     Exponent=  7.5000000000D+00 Coefficients=  1.0000000000D+00
 P 1 1.00 0.000000000000
     Exponent=  4.1000000000D-02 Coefficients=  1.0000000000D+00
 D 1 1.00 0.000000000000
     Exponent=  4.7900000000D-01 Coefficients=  1.0000000000D+00
 ****
 Ernie: Thresh=  0.10000D-02 Tol=  0.10000D-05 Strict=F.
 There are   438 symmetry adapted cartesian basis functions of A   symmetry.
 There are   438 symmetry adapted basis functions of A   symmetry.
   438 basis functions,   722 primitive gaussians,   438 cartesian basis functions
    71 alpha electrons       70 beta electrons
       nuclear repulsion energy      1521.1659529253 Hartrees.
 IExCor= 1009 DFT=T Ex+Corr=PBE1PBE ExCW=0 ScaHFX=  0.250000
 ScaDFX=  0.750000  0.750000  1.000000  1.000000 ScalE2=  1.000000  1.000000
 IRadAn=      5 IRanWt=     -1 IRanGd=            0 ICorTp=0 IEmpDi=  4
 NAtoms=   34 NActive=   34 NUniq=   34 SFac= 1.00D+00 NAtFMM=   60 NAOKFM=F Big=F
 Integral buffers will be    131072 words long.
 Raffenetti 2 integral format.
 Two-electron integral symmetry is turned on.
 Leave Link  301 at Mon Jun 17 21:22:36 2019, MaxMem=  8053063680 cpu:               0.0 elap:               0.1
 (Enter /data2/g16/g16/l302.exe)
 NPDir=0 NMtPBC=     1 NCelOv=     1 NCel=       1 NClECP=     1 NCelD=      1
         NCelK=      1 NCelE2=     1 NClLst=     1 CellRange=     0.0.
 One-electron integrals computed using PRISM.
 One-electron integral symmetry used in STVInt
 NBasis=   438 RedAO= T EigKep=  6.64D-05  NBF=   438
 NBsUse=   438 1.00D-06 EigRej= -1.00D+00 NBFU=   438
 Precomputing XC quadrature grid using
 IXCGrd= 4 IRadAn=           5 IRanWt=          -1 IRanGd=           0 AccXCQ= 0.00D+00.
 Generated NRdTot=       0 NPtTot=           0 NUsed=           0 NTot=          32
 NSgBfM=   433   433   433   433   433 MxSgAt=    34 MxSgA2=    34.
 Leave Link  302 at Mon Jun 17 21:22:37 2019, MaxMem=  8053063680 cpu:               0.0 elap:               0.5
 (Enter /data2/g16/g16/l303.exe)
 DipDrv:  MaxL=1.
 Leave Link  303 at Mon Jun 17 21:22:37 2019, MaxMem=  8053063680 cpu:               0.0 elap:               0.2
 (Enter /data2/g16/g16/l401.exe)
 ExpMin= 4.10D-02 ExpMax= 2.19D+04 ExpMxC= 3.30D+03 IAcc=3 IRadAn=         5 AccDes= 0.00D+00
 Harris functional with IExCor= 1009 and IRadAn=       5 diagonalized for initial guess.
 HarFok:  IExCor= 1009 AccDes= 0.00D+00 IRadAn=         5 IDoV= 1 UseB2=F ITyADJ=14
 ICtDFT=  3500011 ScaDFX=  1.000000  1.000000  1.000000  1.000000
 FoFCou: FMM=F IPFlag=           0 FMFlag=      100000 FMFlg1=           0
         NFxFlg=           0 DoJE=T BraDBF=F KetDBF=T FulRan=T
         wScrn=  0.000000 ICntrl=       500 IOpCl=  0 I1Cent=   200000004 NGrid=           0
         NMat0=    1 NMatS0=      1 NMatT0=    0 NMatD0=    1 NMtDS0=    0 NMtDT0=    0
 Petite list used in FoFCou.
 Harris En= -1467.69871145388    
 JPrj=0 DoOrth=F DoCkMO=F.
 Initial guess <Sx>= 0.0000 <Sy>= 0.0000 <Sz>= 0.5000 <S**2>= 0.7500 S= 0.5000
 Leave Link  401 at Mon Jun 17 21:22:39 2019, MaxMem=  8053063680 cpu:               0.0 elap:               1.6
 (Enter /data2/g16/g16/l502.exe)
 Integral symmetry usage will be decided dynamically.
 UHF open shell SCF:
 Using DIIS extrapolation, IDIIS=  1040.
 NGot=  8053063680 LenX=  8052670277 LenY=  8052477992
 Requested convergence on RMS density matrix=1.00D-08 within 128 cycles.
 Requested convergence on MAX density matrix=1.00D-06.
 Requested convergence on             energy=1.00D-06.
 No special actions if energy rises.
 Fock matrices will be formed incrementally for  20 cycles.

 Cycle   1  Pass 1  IDiag  1:
 FoFJK:  IHMeth= 1 ICntrl=       0 DoSepK=F KAlg= 0 I1Cent=           0 FoldK=F
 IRaf= 840000000 NMat=       1 IRICut=       1 DoRegI=T DoRafI=F ISym2E= 0 IDoP0=0 IntGTp=1.
 FoFCou: FMM=F IPFlag=           0 FMFlag=      100000 FMFlg1=           0
         NFxFlg=           0 DoJE=F BraDBF=F KetDBF=F FulRan=T
         wScrn=  0.000000 ICntrl=         0 IOpCl=  1 I1Cent=           0 NGrid=           0
         NMat0=    1 NMatS0=      1 NMatT0=    0 NMatD0=    1 NMtDS0=    0 NMtDT0=    0
 Symmetry not used in FoFCou.
 E= -1466.93575959366    
 DIIS: error= 2.55D-02 at cycle   1 NSaved=   1.
 NSaved= 1 IEnMin= 1 EnMin= -1466.93575959366     IErMin= 1 ErrMin= 2.55D-02
 ErrMax= 2.55D-02  0.00D+00 EMaxC= 1.00D-01 BMatC= 2.97D+00 BMatP= 2.97D+00
 IDIUse=3 WtCom= 7.45D-01 WtEn= 2.55D-01
 Coeff-Com:  0.100D+01
 Coeff-En:   0.100D+01
 Coeff:      0.100D+01
 Gap=     0.225 Goal=   None    Shift=    0.000
 Gap=     0.364 Goal=   None    Shift=    0.000
 GapD=    0.225 DampG=1.000 DampE=0.500 DampFc=0.5000 IDamp=-1.
 Damping current iteration by 5.00D-01
 RMSDP=4.75D-03 MaxDP=4.12D-01              OVMax= 3.11D-01

 Cycle   2  Pass 1  IDiag  1:
 RMSU=  2.37D-03    CP:  9.92D-01
 E= -1467.06247959580     Delta-E=       -0.126720002147 Rises=F Damp=T
 DIIS: error= 1.04D-02 at cycle   2 NSaved=   2.
 NSaved= 2 IEnMin= 2 EnMin= -1467.06247959580     IErMin= 2 ErrMin= 1.04D-02
 ErrMax= 1.04D-02  0.00D+00 EMaxC= 1.00D-01 BMatC= 5.21D-01 BMatP= 2.97D+00
 IDIUse=3 WtCom= 8.96D-01 WtEn= 1.04D-01
 Coeff-Com:  0.226D+00 0.774D+00
 Coeff-En:   0.395D+00 0.605D+00
 Coeff:      0.244D+00 0.756D+00
 Gap=     0.128 Goal=   None    Shift=    0.000
 Gap=     0.185 Goal=   None    Shift=    0.000
 RMSDP=1.68D-03 MaxDP=1.19D-01 DE=-1.27D-01 OVMax= 2.88D-01

 Cycle   3  Pass 1  IDiag  1:
 RMSU=  1.39D-03    CP:  9.82D-01  6.10D-01
 E= -1467.46635307965     Delta-E=       -0.403873483850 Rises=F Damp=F
 DIIS: error= 9.74D-03 at cycle   3 NSaved=   3.
 NSaved= 3 IEnMin= 3 EnMin= -1467.46635307965     IErMin= 3 ErrMin= 9.74D-03
 ErrMax= 9.74D-03  0.00D+00 EMaxC= 1.00D-01 BMatC= 3.55D-01 BMatP= 5.21D-01
 IDIUse=3 WtCom= 9.03D-01 WtEn= 9.74D-02
 Coeff-Com:  0.530D-01 0.446D+00 0.501D+00
 Coeff-En:   0.000D+00 0.000D+00 0.100D+01
 Coeff:      0.478D-01 0.402D+00 0.550D+00
 Gap=     0.145 Goal=   None    Shift=    0.000
 Gap=     0.223 Goal=   None    Shift=    0.000
 RMSDP=9.50D-04 MaxDP=6.57D-02 DE=-4.04D-01 OVMax= 1.09D-01

 Cycle   4  Pass 1  IDiag  1:
 RMSU=  6.29D-04    CP:  9.87D-01  7.40D-01  5.41D-01
 E= -1467.53757976347     Delta-E=       -0.071226683821 Rises=F Damp=F
 DIIS: error= 3.01D-03 at cycle   4 NSaved=   4.
 NSaved= 4 IEnMin= 4 EnMin= -1467.53757976347     IErMin= 4 ErrMin= 3.01D-03
 ErrMax= 3.01D-03  0.00D+00 EMaxC= 1.00D-01 BMatC= 4.76D-02 BMatP= 3.55D-01
 IDIUse=3 WtCom= 9.70D-01 WtEn= 3.01D-02
 Coeff-Com: -0.114D-01 0.657D-01 0.287D+00 0.659D+00
 Coeff-En:   0.000D+00 0.000D+00 0.111D+00 0.889D+00
 Coeff:     -0.111D-01 0.638D-01 0.282D+00 0.666D+00
 Gap=     0.144 Goal=   None    Shift=    0.000
 Gap=     0.202 Goal=   None    Shift=    0.000
 RMSDP=3.21D-04 MaxDP=1.86D-02 DE=-7.12D-02 OVMax= 3.37D-02

 Cycle   5  Pass 1  IDiag  1:
 RMSU=  2.01D-04    CP:  9.86D-01  7.23D-01  6.56D-01  7.00D-01
 E= -1467.54752601650     Delta-E=       -0.009946253028 Rises=F Damp=F
 DIIS: error= 7.93D-04 at cycle   5 NSaved=   5.
 NSaved= 5 IEnMin= 5 EnMin= -1467.54752601650     IErMin= 5 ErrMin= 7.93D-04
 ErrMax= 7.93D-04  0.00D+00 EMaxC= 1.00D-01 BMatC= 4.01D-03 BMatP= 4.76D-02
 IDIUse=3 WtCom= 9.92D-01 WtEn= 7.93D-03
 Coeff-Com: -0.838D-02 0.146D-01 0.131D+00 0.370D+00 0.493D+00
 Coeff-En:   0.000D+00 0.000D+00 0.000D+00 0.000D+00 0.100D+01
 Coeff:     -0.832D-02 0.145D-01 0.130D+00 0.367D+00 0.497D+00
 Gap=     0.145 Goal=   None    Shift=    0.000
 Gap=     0.205 Goal=   None    Shift=    0.000
 RMSDP=1.09D-04 MaxDP=5.49D-03 DE=-9.95D-03 OVMax= 1.25D-02

 Cycle   6  Pass 1  IDiag  1:
 RMSU=  6.93D-05    CP:  9.85D-01  7.25D-01  6.52D-01  7.57D-01  6.24D-01
 E= -1467.54839343295     Delta-E=       -0.000867416443 Rises=F Damp=F
 DIIS: error= 2.42D-04 at cycle   6 NSaved=   6.
 NSaved= 6 IEnMin= 6 EnMin= -1467.54839343295     IErMin= 6 ErrMin= 2.42D-04
 ErrMax= 2.42D-04  0.00D+00 EMaxC= 1.00D-01 BMatC= 4.08D-04 BMatP= 4.01D-03
 IDIUse=3 WtCom= 9.98D-01 WtEn= 2.42D-03
 Coeff-Com: -0.278D-02 0.975D-03 0.366D-01 0.116D+00 0.273D+00 0.577D+00
 Coeff-En:   0.000D+00 0.000D+00 0.000D+00 0.000D+00 0.435D-01 0.956D+00
 Coeff:     -0.278D-02 0.973D-03 0.365D-01 0.115D+00 0.272D+00 0.578D+00
 Gap=     0.147 Goal=   None    Shift=    0.000
 Gap=     0.205 Goal=   None    Shift=    0.000
 RMSDP=3.59D-05 MaxDP=2.20D-03 DE=-8.67D-04 OVMax= 5.19D-03

 Cycle   7  Pass 1  IDiag  1:
 RMSU=  2.55D-05    CP:  9.85D-01  7.22D-01  6.58D-01  7.59D-01  6.70D-01
                    CP:  7.00D-01
 E= -1467.54848805290     Delta-E=       -0.000094619956 Rises=F Damp=F
 DIIS: error= 1.22D-04 at cycle   7 NSaved=   7.
 NSaved= 7 IEnMin= 7 EnMin= -1467.54848805290     IErMin= 7 ErrMin= 1.22D-04
 ErrMax= 1.22D-04  0.00D+00 EMaxC= 1.00D-01 BMatC= 6.74D-05 BMatP= 4.08D-04
 IDIUse=3 WtCom= 9.99D-01 WtEn= 1.22D-03
 Coeff-Com: -0.209D-04-0.245D-02-0.268D-02-0.152D-03 0.595D-01 0.329D+00
 Coeff-Com:  0.617D+00
 Coeff-En:   0.000D+00 0.000D+00 0.000D+00 0.000D+00 0.000D+00 0.698D-01
 Coeff-En:   0.930D+00
 Coeff:     -0.209D-04-0.245D-02-0.268D-02-0.152D-03 0.595D-01 0.329D+00
 Coeff:      0.617D+00
 Gap=     0.147 Goal=   None    Shift=    0.000
 Gap=     0.206 Goal=   None    Shift=    0.000
 RMSDP=1.50D-05 MaxDP=9.16D-04 DE=-9.46D-05 OVMax= 1.17D-03

 Cycle   8  Pass 1  IDiag  1:
 RMSU=  1.04D-05    CP:  9.85D-01  7.22D-01  6.58D-01  7.58D-01  7.04D-01
                    CP:  7.97D-01  8.10D-01
 E= -1467.54850437132     Delta-E=       -0.000016318414 Rises=F Damp=F
 DIIS: error= 3.10D-05 at cycle   8 NSaved=   8.
 NSaved= 8 IEnMin= 8 EnMin= -1467.54850437132     IErMin= 8 ErrMin= 3.10D-05
 ErrMax= 3.10D-05  0.00D+00 EMaxC= 1.00D-01 BMatC= 4.75D-06 BMatP= 6.74D-05
 IDIUse=1 WtCom= 1.00D+00 WtEn= 0.00D+00
 Coeff-Com:  0.411D-03-0.110D-02-0.538D-02-0.143D-01-0.163D-01 0.644D-01
 Coeff-Com:  0.213D+00 0.759D+00
 Coeff:      0.411D-03-0.110D-02-0.538D-02-0.143D-01-0.163D-01 0.644D-01
 Coeff:      0.213D+00 0.759D+00
 Gap=     0.147 Goal=   None    Shift=    0.000
 Gap=     0.205 Goal=   None    Shift=    0.000
 RMSDP=4.98D-06 MaxDP=5.41D-04 DE=-1.63D-05 OVMax= 1.24D-03

 Cycle   9  Pass 1  IDiag  1:
 RMSU=  4.08D-06    CP:  9.85D-01  7.22D-01  6.57D-01  7.61D-01  7.04D-01
                    CP:  8.26D-01  8.48D-01  9.23D-01
 E= -1467.54850585001     Delta-E=       -0.000001478697 Rises=F Damp=F
 DIIS: error= 2.64D-05 at cycle   9 NSaved=   9.
 NSaved= 9 IEnMin= 9 EnMin= -1467.54850585001     IErMin= 9 ErrMin= 2.64D-05
 ErrMax= 2.64D-05  0.00D+00 EMaxC= 1.00D-01 BMatC= 2.87D-06 BMatP= 4.75D-06
 IDIUse=1 WtCom= 1.00D+00 WtEn= 0.00D+00
 Coeff-Com:  0.313D-03-0.313D-03-0.291D-02-0.936D-02-0.255D-01-0.278D-01
 Coeff-Com: -0.132D-01 0.483D+00 0.596D+00
 Coeff:      0.313D-03-0.313D-03-0.291D-02-0.936D-02-0.255D-01-0.278D-01
 Coeff:     -0.132D-01 0.483D+00 0.596D+00
 Gap=     0.147 Goal=   None    Shift=    0.000
 Gap=     0.205 Goal=   None    Shift=    0.000
 RMSDP=3.38D-06 MaxDP=2.45D-04 DE=-1.48D-06 OVMax= 2.76D-04

 Cycle  10  Pass 1  IDiag  1:
 RMSU=  2.27D-06    CP:  9.85D-01  7.22D-01  6.57D-01  7.60D-01  7.08D-01
                    CP:  8.44D-01  8.90D-01  1.06D+00  8.74D-01
 E= -1467.54850650031     Delta-E=       -0.000000650302 Rises=F Damp=F
 DIIS: error= 1.34D-05 at cycle  10 NSaved=  10.
 NSaved=10 IEnMin=10 EnMin= -1467.54850650031     IErMin=10 ErrMin= 1.34D-05
 ErrMax= 1.34D-05  0.00D+00 EMaxC= 1.00D-01 BMatC= 5.09D-07 BMatP= 2.87D-06
 IDIUse=1 WtCom= 1.00D+00 WtEn= 0.00D+00
 Coeff-Com:  0.953D-04 0.986D-04-0.136D-03-0.152D-02-0.118D-01-0.311D-01
 Coeff-Com: -0.705D-01 0.109D+00 0.347D+00 0.658D+00
 Coeff:      0.953D-04 0.986D-04-0.136D-03-0.152D-02-0.118D-01-0.311D-01
 Coeff:     -0.705D-01 0.109D+00 0.347D+00 0.658D+00
 Gap=     0.147 Goal=   None    Shift=    0.000
 Gap=     0.205 Goal=   None    Shift=    0.000
 RMSDP=1.55D-06 MaxDP=1.16D-04 DE=-6.50D-07 OVMax= 3.01D-04

 Cycle  11  Pass 1  IDiag  1:
 RMSU=  9.48D-07    CP:  9.85D-01  7.22D-01  6.57D-01  7.60D-01  7.09D-01
                    CP:  8.50D-01  8.96D-01  1.15D+00  9.93D-01  8.43D-01
 E= -1467.54850665171     Delta-E=       -0.000000151391 Rises=F Damp=F
 DIIS: error= 6.47D-06 at cycle  11 NSaved=  11.
 NSaved=11 IEnMin=11 EnMin= -1467.54850665171     IErMin=11 ErrMin= 6.47D-06
 ErrMax= 6.47D-06  0.00D+00 EMaxC= 1.00D-01 BMatC= 1.06D-07 BMatP= 5.09D-07
 IDIUse=1 WtCom= 1.00D+00 WtEn= 0.00D+00
 Coeff-Com:  0.146D-05 0.773D-04 0.447D-03 0.865D-03-0.198D-02-0.102D-01
 Coeff-Com: -0.363D-01-0.223D-01 0.589D-01 0.362D+00 0.649D+00
 Coeff:      0.146D-05 0.773D-04 0.447D-03 0.865D-03-0.198D-02-0.102D-01
 Coeff:     -0.363D-01-0.223D-01 0.589D-01 0.362D+00 0.649D+00
 Gap=     0.147 Goal=   None    Shift=    0.000
 Gap=     0.205 Goal=   None    Shift=    0.000
 RMSDP=6.49D-07 MaxDP=4.31D-05 DE=-1.51D-07 OVMax= 1.09D-04

 Cycle  12  Pass 1  IDiag  1:
 RMSU=  4.37D-07    CP:  9.85D-01  7.22D-01  6.57D-01  7.60D-01  7.08D-01
                    CP:  8.52D-01  8.94D-01  1.16D+00  1.05D+00  9.89D-01
                    CP:  8.09D-01
 E= -1467.54850667768     Delta-E=       -0.000000025977 Rises=F Damp=F
 DIIS: error= 2.45D-06 at cycle  12 NSaved=  12.
 NSaved=12 IEnMin=12 EnMin= -1467.54850667768     IErMin=12 ErrMin= 2.45D-06
 ErrMax= 2.45D-06  0.00D+00 EMaxC= 1.00D-01 BMatC= 2.53D-08 BMatP= 1.06D-07
 IDIUse=1 WtCom= 1.00D+00 WtEn= 0.00D+00
 Coeff-Com: -0.113D-04 0.232D-04 0.302D-03 0.772D-03 0.584D-03-0.124D-02
 Coeff-Com: -0.118D-01-0.331D-01-0.302D-01 0.114D+00 0.404D+00 0.557D+00
 Coeff:     -0.113D-04 0.232D-04 0.302D-03 0.772D-03 0.584D-03-0.124D-02
 Coeff:     -0.118D-01-0.331D-01-0.302D-01 0.114D+00 0.404D+00 0.557D+00
 Gap=     0.147 Goal=   None    Shift=    0.000
 Gap=     0.205 Goal=   None    Shift=    0.000
 RMSDP=2.94D-07 MaxDP=2.05D-05 DE=-2.60D-08 OVMax= 2.50D-05

 Cycle  13  Pass 1  IDiag  1:
 RMSU=  1.88D-07    CP:  9.85D-01  7.22D-01  6.57D-01  7.60D-01  7.08D-01
                    CP:  8.53D-01  8.94D-01  1.17D+00  1.06D+00  1.05D+00
                    CP:  9.20D-01  8.35D-01
 E= -1467.54850668332     Delta-E=       -0.000000005638 Rises=F Damp=F
 DIIS: error= 1.05D-06 at cycle  13 NSaved=  13.
 NSaved=13 IEnMin=13 EnMin= -1467.54850668332     IErMin=13 ErrMin= 1.05D-06
 ErrMax= 1.05D-06  0.00D+00 EMaxC= 1.00D-01 BMatC= 4.38D-09 BMatP= 2.53D-08
 IDIUse=1 WtCom= 1.00D+00 WtEn= 0.00D+00
 Coeff-Com: -0.360D-05-0.104D-04 0.608D-04 0.204D-03 0.885D-03 0.269D-02
 Coeff-Com:  0.366D-02-0.996D-02-0.351D-01-0.303D-01 0.636D-01 0.323D+00
 Coeff-Com:  0.681D+00
 Coeff:     -0.360D-05-0.104D-04 0.608D-04 0.204D-03 0.885D-03 0.269D-02
 Coeff:      0.366D-02-0.996D-02-0.351D-01-0.303D-01 0.636D-01 0.323D+00
 Coeff:      0.681D+00
 Gap=     0.147 Goal=   None    Shift=    0.000
 Gap=     0.205 Goal=   None    Shift=    0.000
 RMSDP=1.24D-07 MaxDP=1.21D-05 DE=-5.64D-09 OVMax= 2.05D-05

 Cycle  14  Pass 1  IDiag  1:
 RMSU=  1.03D-07    CP:  9.85D-01  7.22D-01  6.57D-01  7.60D-01  7.08D-01
                    CP:  8.53D-01  8.94D-01  1.17D+00  1.07D+00  1.07D+00
                    CP:  9.53D-01  8.62D-01  8.40D-01
 E= -1467.54850668442     Delta-E=       -0.000000001098 Rises=F Damp=F
 DIIS: error= 5.39D-07 at cycle  14 NSaved=  14.
 NSaved=14 IEnMin=14 EnMin= -1467.54850668442     IErMin=14 ErrMin= 5.39D-07
 ErrMax= 5.39D-07  0.00D+00 EMaxC= 1.00D-01 BMatC= 8.75D-10 BMatP= 4.38D-09
 IDIUse=1 WtCom= 1.00D+00 WtEn= 0.00D+00
 Coeff-Com:  0.504D-06-0.117D-04-0.276D-04-0.436D-04 0.340D-03 0.164D-02
 Coeff-Com:  0.410D-02 0.157D-02-0.132D-01-0.393D-01-0.551D-01 0.389D-01
 Coeff-Com:  0.369D+00 0.692D+00
 Coeff:      0.504D-06-0.117D-04-0.276D-04-0.436D-04 0.340D-03 0.164D-02
 Coeff:      0.410D-02 0.157D-02-0.132D-01-0.393D-01-0.551D-01 0.389D-01
 Coeff:      0.369D+00 0.692D+00
 Gap=     0.147 Goal=   None    Shift=    0.000
 Gap=     0.205 Goal=   None    Shift=    0.000
 RMSDP=7.27D-08 MaxDP=4.71D-06 DE=-1.10D-09 OVMax= 5.90D-06

 Cycle  15  Pass 1  IDiag  1:
 RMSU=  3.42D-08    CP:  9.85D-01  7.22D-01  6.57D-01  7.60D-01  7.08D-01
                    CP:  8.53D-01  8.94D-01  1.17D+00  1.07D+00  1.07D+00
                    CP:  9.77D-01  9.45D-01  9.78D-01  7.86D-01
 E= -1467.54850668469     Delta-E=       -0.000000000271 Rises=F Damp=F
 DIIS: error= 1.28D-07 at cycle  15 NSaved=  15.
 NSaved=15 IEnMin=15 EnMin= -1467.54850668469     IErMin=15 ErrMin= 1.28D-07
 ErrMax= 1.28D-07  0.00D+00 EMaxC= 1.00D-01 BMatC= 5.78D-11 BMatP= 8.75D-10
 IDIUse=1 WtCom= 1.00D+00 WtEn= 0.00D+00
 Coeff-Com:  0.681D-06-0.207D-05-0.199D-04-0.470D-04-0.863D-05 0.220D-03
 Coeff-Com:  0.876D-03 0.215D-02 0.159D-03-0.830D-02-0.287D-01-0.344D-01
 Coeff-Com:  0.392D-01 0.225D+00 0.804D+00
 Coeff:      0.681D-06-0.207D-05-0.199D-04-0.470D-04-0.863D-05 0.220D-03
 Coeff:      0.876D-03 0.215D-02 0.159D-03-0.830D-02-0.287D-01-0.344D-01
 Coeff:      0.392D-01 0.225D+00 0.804D+00
 Gap=     0.147 Goal=   None    Shift=    0.000
 Gap=     0.205 Goal=   None    Shift=    0.000
 RMSDP=1.98D-08 MaxDP=1.21D-06 DE=-2.71D-10 OVMax= 1.83D-06

 Cycle  16  Pass 1  IDiag  1:
 RMSU=  1.36D-08    CP:  9.85D-01  7.22D-01  6.57D-01  7.60D-01  7.08D-01
                    CP:  8.53D-01  8.94D-01  1.17D+00  1.07D+00  1.08D+00
                    CP:  9.76D-01  9.53D-01  1.02D+00  8.76D-01  9.04D-01
 E= -1467.54850668472     Delta-E=       -0.000000000028 Rises=F Damp=F
 DIIS: error= 4.48D-08 at cycle  16 NSaved=  16.
 NSaved=16 IEnMin=16 EnMin= -1467.54850668472     IErMin=16 ErrMin= 4.48D-08
 ErrMax= 4.48D-08  0.00D+00 EMaxC= 1.00D-01 BMatC= 1.09D-11 BMatP= 5.78D-11
 IDIUse=1 WtCom= 1.00D+00 WtEn= 0.00D+00
 Coeff-Com:  0.661D-07 0.106D-05-0.411D-05-0.112D-04-0.526D-04-0.145D-03
 Coeff-Com: -0.247D-03 0.636D-03 0.189D-02 0.255D-02-0.347D-02-0.201D-01
 Coeff-Com: -0.340D-01-0.172D-01 0.322D+00 0.748D+00
 Coeff:      0.661D-07 0.106D-05-0.411D-05-0.112D-04-0.526D-04-0.145D-03
 Coeff:     -0.247D-03 0.636D-03 0.189D-02 0.255D-02-0.347D-02-0.201D-01
 Coeff:     -0.340D-01-0.172D-01 0.322D+00 0.748D+00
 Gap=     0.147 Goal=   None    Shift=    0.000
 Gap=     0.205 Goal=   None    Shift=    0.000
 RMSDP=7.95D-09 MaxDP=4.25D-07 DE=-2.77D-11 OVMax= 8.10D-07

 SCF Done:  E(UPBE1PBE) =  -1467.54850668     A.U. after   16 cycles
            NFock= 16  Conv=0.80D-08     -V/T= 2.0052
 <Sx>= 0.0000 <Sy>= 0.0000 <Sz>= 0.5000 <S**2>= 0.7550 S= 0.5025
 <L.S>=  0.00000000000    
 KE= 1.459897360851D+03 PE=-6.497743888770D+03 EE= 2.049132068310D+03
 Annihilation of the first spin contaminant:
 S**2 before annihilation     0.7550,   after     0.7500
 Leave Link  502 at Mon Jun 17 21:25:14 2019, MaxMem=  8053063680 cpu:               0.0 elap:             155.2
 (Enter /data2/g16/g16/l601.exe)
 Copying SCF densities to generalized density rwf, IOpCl= 1 IROHF=0.

 **********************************************************************

            Population analysis using the SCF Density.

 **********************************************************************

 Orbital symmetries:
 Alpha Orbitals:
       Occupied  (A) (A) (A) (A) (A) (A) (A) (A) (A) (A) (A) (A)
                 (A) (A) (A) (A) (A) (A) (A) (A) (A) (A) (A) (A)
                 (A) (A) (A) (A) (A) (A) (A) (A) (A) (A) (A) (A)
                 (A) (A) (A) (A) (A) (A) (A) (A) (A) (A) (A) (A)
                 (A) (A) (A) (A) (A) (A) (A) (A) (A) (A) (A) (A)
                 (A) (A) (A) (A) (A) (A) (A) (A) (A) (A) (A)
       Virtual   (A) (A) (A) (A) (A) (A) (A) (A) (A) (A) (A) (A)
                 (A) (A) (A) (A) (A) (A) (A) (A) (A) (A) (A) (A)
                 (A) (A) (A) (A) (A) (A) (A) (A) (A) (A) (A) (A)
                 (A) (A) (A) (A) (A) (A) (A) (A) (A) (A) (A) (A)
                 (A) (A) (A) (A) (A) (A) (A) (A) (A) (A) (A) (A)
                 (A) (A) (A) (A) (A) (A) (A) (A) (A) (A) (A) (A)
                 (A) (A) (A) (A) (A) (A) (A) (A) (A) (A) (A) (A)
                 (A) (A) (A) (A) (A) (A) (A) (A) (A) (A) (A) (A)
                 (A) (A) (A) (A) (A) (A) (A) (A) (A) (A) (A) (A)
                 (A) (A) (A) (A) (A) (A) (A) (A) (A) (A) (A) (A)
                 (A) (A) (A) (A) (A) (A) (A) (A) (A) (A) (A) (A)
                 (A) (A) (A) (A) (A) (A) (A) (A) (A) (A) (A) (A)
                 (A) (A) (A) (A) (A) (A) (A) (A) (A) (A) (A) (A)
                 (A) (A) (A) (A) (A) (A) (A) (A) (A) (A) (A) (A)
                 (A) (A) (A) (A) (A) (A) (A) (A) (A) (A) (A) (A)
                 (A) (A) (A) (A) (A) (A) (A) (A) (A) (A) (A) (A)
                 (A) (A) (A) (A) (A) (A) (A) (A) (A) (A) (A) (A)
                 (A) (A) (A) (A) (A) (A) (A) (A) (A) (A) (A) (A)
                 (A) (A) (A) (A) (A) (A) (A) (A) (A) (A) (A) (A)
                 (A) (A) (A) (A) (A) (A) (A) (A) (A) (A) (A) (A)
                 (A) (A) (A) (A) (A) (A) (A) (A) (A) (A) (A) (A)
                 (A) (A) (A) (A) (A) (A) (A) (A) (A) (A) (A) (A)
                 (A) (A) (A) (A) (A) (A) (A) (A) (A) (A) (A) (A)
                 (A) (A) (A) (A) (A) (A) (A) (A) (A) (A) (A) (A)
                 (A) (A) (A) (A) (A) (A) (A) (A) (A) (A) (A) (A)
                 (A) (A) (A) (A) (A) (A) (A) (A) (A) (A) (A) (A)
                 (A) (A) (A) (A) (A) (A) (A) (A) (A) (A) (A) (A)
                 (A) (A) (A) (A) (A) (A) (A) (A) (A) (A) (A) (A)
                 (A) (A) (A) (A) (A) (A) (A) (A) (A) (A) (A) (A)
                 (A) (A) (A) (A) (A) (A) (A) (A) (A) (A) (A) (A)
                 (A) (A) (A) (A) (A) (A) (A)
 Beta  Orbitals:
       Occupied  (A) (A) (A) (A) (A) (A) (A) (A) (A) (A) (A) (A)
                 (A) (A) (A) (A) (A) (A) (A) (A) (A) (A) (A) (A)
                 (A) (A) (A) (A) (A) (A) (A) (A) (A) (A) (A) (A)
                 (A) (A) (A) (A) (A) (A) (A) (A) (A) (A) (A) (A)
                 (A) (A) (A) (A) (A) (A) (A) (A) (A) (A) (A) (A)
                 (A) (A) (A) (A) (A) (A) (A) (A) (A) (A)
       Virtual   (A) (A) (A) (A) (A) (A) (A) (A) (A) (A) (A) (A)
                 (A) (A) (A) (A) (A) (A) (A) (A) (A) (A) (A) (A)
                 (A) (A) (A) (A) (A) (A) (A) (A) (A) (A) (A) (A)
                 (A) (A) (A) (A) (A) (A) (A) (A) (A) (A) (A) (A)
                 (A) (A) (A) (A) (A) (A) (A) (A) (A) (A) (A) (A)
                 (A) (A) (A) (A) (A) (A) (A) (A) (A) (A) (A) (A)
                 (A) (A) (A) (A) (A) (A) (A) (A) (A) (A) (A) (A)
                 (A) (A) (A) (A) (A) (A) (A) (A) (A) (A) (A) (A)
                 (A) (A) (A) (A) (A) (A) (A) (A) (A) (A) (A) (A)
                 (A) (A) (A) (A) (A) (A) (A) (A) (A) (A) (A) (A)
                 (A) (A) (A) (A) (A) (A) (A) (A) (A) (A) (A) (A)
                 (A) (A) (A) (A) (A) (A) (A) (A) (A) (A) (A) (A)
                 (A) (A) (A) (A) (A) (A) (A) (A) (A) (A) (A) (A)
                 (A) (A) (A) (A) (A) (A) (A) (A) (A) (A) (A) (A)
                 (A) (A) (A) (A) (A) (A) (A) (A) (A) (A) (A) (A)
                 (A) (A) (A) (A) (A) (A) (A) (A) (A) (A) (A) (A)
                 (A) (A) (A) (A) (A) (A) (A) (A) (A) (A) (A) (A)
                 (A) (A) (A) (A) (A) (A) (A) (A) (A) (A) (A) (A)
                 (A) (A) (A) (A) (A) (A) (A) (A) (A) (A) (A) (A)
                 (A) (A) (A) (A) (A) (A) (A) (A) (A) (A) (A) (A)
                 (A) (A) (A) (A) (A) (A) (A) (A) (A) (A) (A) (A)
                 (A) (A) (A) (A) (A) (A) (A) (A) (A) (A) (A) (A)
                 (A) (A) (A) (A) (A) (A) (A) (A) (A) (A) (A) (A)
                 (A) (A) (A) (A) (A) (A) (A) (A) (A) (A) (A) (A)
                 (A) (A) (A) (A) (A) (A) (A) (A) (A) (A) (A) (A)
                 (A) (A) (A) (A) (A) (A) (A) (A) (A) (A) (A) (A)
                 (A) (A) (A) (A) (A) (A) (A) (A) (A) (A) (A) (A)
                 (A) (A) (A) (A) (A) (A) (A) (A) (A) (A) (A) (A)
                 (A) (A) (A) (A) (A) (A) (A) (A) (A) (A) (A) (A)
                 (A) (A) (A) (A) (A) (A) (A) (A) (A) (A) (A) (A)
                 (A) (A) (A) (A) (A) (A) (A) (A)
 The electronic state is 2-A.
 Alpha  occ. eigenvalues --  -89.28802 -89.08191 -19.24748 -19.24222 -19.22621
 Alpha  occ. eigenvalues --  -14.48510 -10.29737 -10.29700 -10.29119 -10.28711
 Alpha  occ. eigenvalues --  -10.26126 -10.24856 -10.23317 -10.22840 -10.22571
 Alpha  occ. eigenvalues --  -10.22317  -8.22121  -8.04434  -6.15843  -6.15799
 Alpha  occ. eigenvalues --   -6.15685  -5.98274  -5.97898  -5.97174  -1.14717
 Alpha  occ. eigenvalues --   -1.13563  -1.04479  -0.93297  -0.85924  -0.84032
 Alpha  occ. eigenvalues --   -0.82245  -0.77238  -0.74911  -0.72103  -0.71236
 Alpha  occ. eigenvalues --   -0.70587  -0.64474  -0.62458  -0.58978  -0.56421
 Alpha  occ. eigenvalues --   -0.53156  -0.51829  -0.51304  -0.50750  -0.50218
 Alpha  occ. eigenvalues --   -0.48515  -0.47410  -0.46360  -0.46178  -0.45134
 Alpha  occ. eigenvalues --   -0.44653  -0.43962  -0.42782  -0.42443  -0.41667
 Alpha  occ. eigenvalues --   -0.40508  -0.40088  -0.39066  -0.38879  -0.36502
 Alpha  occ. eigenvalues --   -0.36364  -0.36184  -0.35749  -0.35656  -0.34541
 Alpha  occ. eigenvalues --   -0.33587  -0.31776  -0.28318  -0.27222  -0.26894
 Alpha  occ. eigenvalues --   -0.20130
 Alpha virt. eigenvalues --   -0.05449  -0.02450   0.00470   0.01072   0.02633
 Alpha virt. eigenvalues --    0.03411   0.03693   0.04584   0.04816   0.04990
 Alpha virt. eigenvalues --    0.05447   0.05804   0.06161   0.06289   0.06852
 Alpha virt. eigenvalues --    0.07843   0.08240   0.08373   0.09038   0.09325
 Alpha virt. eigenvalues --    0.09395   0.09653   0.10359   0.10763   0.11012
 Alpha virt. eigenvalues --    0.11376   0.11828   0.12672   0.13022   0.13694
 Alpha virt. eigenvalues --    0.14032   0.14406   0.14711   0.15024   0.15548
 Alpha virt. eigenvalues --    0.15982   0.16651   0.16764   0.16938   0.17748
 Alpha virt. eigenvalues --    0.18384   0.18717   0.19264   0.19436   0.19650
 Alpha virt. eigenvalues --    0.19997   0.20869   0.21246   0.22040   0.22541
 Alpha virt. eigenvalues --    0.23192   0.23228   0.23993   0.24650   0.25433
 Alpha virt. eigenvalues --    0.26125   0.26328   0.26733   0.27137   0.27727
 Alpha virt. eigenvalues --    0.27987   0.28404   0.29093   0.29231   0.29820
 Alpha virt. eigenvalues --    0.30411   0.30599   0.31478   0.31714   0.31793
 Alpha virt. eigenvalues --    0.32263   0.32963   0.33515   0.34553   0.34987
 Alpha virt. eigenvalues --    0.35592   0.36810   0.37737   0.38137   0.40463
 Alpha virt. eigenvalues --    0.41753   0.41949   0.42257   0.43492   0.44240
 Alpha virt. eigenvalues --    0.46123   0.47104   0.47568   0.48096   0.50225
 Alpha virt. eigenvalues --    0.50716   0.50923   0.51821   0.51941   0.52862
 Alpha virt. eigenvalues --    0.53612   0.54003   0.54559   0.55465   0.56158
 Alpha virt. eigenvalues --    0.57095   0.58086   0.58187   0.59852   0.60527
 Alpha virt. eigenvalues --    0.60943   0.61902   0.62696   0.63143   0.63800
 Alpha virt. eigenvalues --    0.64226   0.64890   0.65353   0.65899   0.66654
 Alpha virt. eigenvalues --    0.67824   0.68100   0.68709   0.70037   0.71022
 Alpha virt. eigenvalues --    0.72094   0.72836   0.73164   0.73898   0.74215
 Alpha virt. eigenvalues --    0.74774   0.75884   0.76470   0.77231   0.78396
 Alpha virt. eigenvalues --    0.79039   0.79806   0.80805   0.81885   0.82165
 Alpha virt. eigenvalues --    0.82583   0.83205   0.83825   0.84873   0.85672
 Alpha virt. eigenvalues --    0.86014   0.87069   0.87954   0.88389   0.88700
 Alpha virt. eigenvalues --    0.89213   0.89832   0.90423   0.90988   0.91220
 Alpha virt. eigenvalues --    0.91569   0.92969   0.94214   0.94841   0.95433
 Alpha virt. eigenvalues --    0.96372   0.97409   0.97944   0.98064   0.99604
 Alpha virt. eigenvalues --    0.99761   1.01892   1.02218   1.03469   1.04543
 Alpha virt. eigenvalues --    1.04632   1.07778   1.08621   1.09155   1.11955
 Alpha virt. eigenvalues --    1.12534   1.14631   1.15040   1.15865   1.16838
 Alpha virt. eigenvalues --    1.18656   1.20263   1.21759   1.22235   1.23589
 Alpha virt. eigenvalues --    1.25514   1.28912   1.30123   1.31587   1.31719
 Alpha virt. eigenvalues --    1.36477   1.37817   1.39581   1.40116   1.41432
 Alpha virt. eigenvalues --    1.44336   1.45418   1.45912   1.48027   1.48803
 Alpha virt. eigenvalues --    1.49151   1.50361   1.51509   1.52999   1.55941
 Alpha virt. eigenvalues --    1.57572   1.59478   1.62530   1.63118   1.63289
 Alpha virt. eigenvalues --    1.65610   1.65921   1.66988   1.68123   1.68444
 Alpha virt. eigenvalues --    1.69357   1.71039   1.72238   1.73203   1.74968
 Alpha virt. eigenvalues --    1.75636   1.76429   1.77637   1.78778   1.79223
 Alpha virt. eigenvalues --    1.79742   1.80577   1.80975   1.81808   1.82579
 Alpha virt. eigenvalues --    1.83919   1.84400   1.85112   1.85935   1.87154
 Alpha virt. eigenvalues --    1.88072   1.89662   1.90984   1.92961   1.94158
 Alpha virt. eigenvalues --    1.95322   1.95875   1.97929   1.98238   1.98854
 Alpha virt. eigenvalues --    1.99467   2.02290   2.03128   2.04317   2.05645
 Alpha virt. eigenvalues --    2.06431   2.07256   2.10389   2.12408   2.13450
 Alpha virt. eigenvalues --    2.14889   2.16280   2.16880   2.23880   2.26044
 Alpha virt. eigenvalues --    2.27901   2.28736   2.31759   2.32946   2.34303
 Alpha virt. eigenvalues --    2.36760   2.38757   2.39413   2.40049   2.41062
 Alpha virt. eigenvalues --    2.42824   2.44880   2.47363   2.48728   2.49722
 Alpha virt. eigenvalues --    2.53739   2.54642   2.54852   2.58059   2.58928
 Alpha virt. eigenvalues --    2.60574   2.63942   2.65295   2.66060   2.67450
 Alpha virt. eigenvalues --    2.70698   2.75274   2.75796   2.77524   2.80647
 Alpha virt. eigenvalues --    2.82466   2.82693   2.83208   2.83321   2.84199
 Alpha virt. eigenvalues --    2.84404   2.85323   2.86557   2.87000   2.88019
 Alpha virt. eigenvalues --    2.88398   2.89635   2.90934   2.93188   2.93602
 Alpha virt. eigenvalues --    2.94584   2.95547   2.96842   2.97872   2.98402
 Alpha virt. eigenvalues --    2.99277   3.02605   3.03507   3.03935   3.06712
 Alpha virt. eigenvalues --    3.08099   3.15672   3.18250   3.19637   3.20552
 Alpha virt. eigenvalues --    3.26177   3.28219   3.29738   3.31223   3.31483
 Alpha virt. eigenvalues --    3.34449   3.35832   3.37359   3.38365   3.41500
 Alpha virt. eigenvalues --    3.42016   3.42969   3.45172   3.48193   3.49908
 Alpha virt. eigenvalues --    3.53770   3.56382   3.59677   3.63692   3.64707
 Alpha virt. eigenvalues --    3.76362   3.94586   4.47191   4.57459   4.62172
 Alpha virt. eigenvalues --    4.64292   4.72436   4.73850   4.74726   4.86546
 Alpha virt. eigenvalues --    4.91306   5.03107   5.44610   5.81778   5.84475
 Alpha virt. eigenvalues --    6.08129  22.21651  22.63377  58.49219  58.49253
 Alpha virt. eigenvalues --   58.50385  58.50655  58.50890  58.55591  58.56061
 Alpha virt. eigenvalues --   58.56350  58.56632  58.56828  95.61788 106.32252
 Alpha virt. eigenvalues --  106.33254 106.39143
  Beta  occ. eigenvalues --  -89.28802 -89.08191 -19.24748 -19.24222 -19.21190
  Beta  occ. eigenvalues --  -14.47321 -10.29739 -10.29700 -10.29184 -10.28776
  Beta  occ. eigenvalues --  -10.26125 -10.24853 -10.23265 -10.22789 -10.22523
  Beta  occ. eigenvalues --  -10.22268  -8.22121  -8.04434  -6.15843  -6.15799
  Beta  occ. eigenvalues --   -6.15685  -5.98274  -5.97898  -5.97174  -1.14717
  Beta  occ. eigenvalues --   -1.10932  -1.04479  -0.92345  -0.85733  -0.83929
  Beta  occ. eigenvalues --   -0.82113  -0.77042  -0.73843  -0.71851  -0.71106
  Beta  occ. eigenvalues --   -0.70131  -0.64421  -0.62330  -0.58601  -0.55912
  Beta  occ. eigenvalues --   -0.53066  -0.51822  -0.51017  -0.50414  -0.48344
  Beta  occ. eigenvalues --   -0.47527  -0.47180  -0.46344  -0.46114  -0.44980
  Beta  occ. eigenvalues --   -0.44268  -0.43806  -0.42506  -0.41649  -0.41196
  Beta  occ. eigenvalues --   -0.40204  -0.40032  -0.38735  -0.37669  -0.36323
  Beta  occ. eigenvalues --   -0.36127  -0.35720  -0.35696  -0.34513  -0.33584
  Beta  occ. eigenvalues --   -0.32729  -0.31771  -0.28237  -0.26721  -0.25999
  Beta virt. eigenvalues --   -0.05450  -0.03791  -0.02412   0.00482   0.01077
  Beta virt. eigenvalues --    0.02655   0.03438   0.03731   0.04625   0.04907
  Beta virt. eigenvalues --    0.05021   0.05472   0.05847   0.06189   0.06314
  Beta virt. eigenvalues --    0.06920   0.07862   0.08297   0.08447   0.09064
  Beta virt. eigenvalues --    0.09366   0.09518   0.09714   0.10404   0.10812
  Beta virt. eigenvalues --    0.11032   0.11435   0.11924   0.12787   0.13109
  Beta virt. eigenvalues --    0.13752   0.14092   0.14446   0.14801   0.15082
  Beta virt. eigenvalues --    0.15877   0.16072   0.16697   0.16996   0.17201
  Beta virt. eigenvalues --    0.17885   0.18432   0.18822   0.19385   0.19602
  Beta virt. eigenvalues --    0.19790   0.20202   0.21015   0.21362   0.22135
  Beta virt. eigenvalues --    0.22708   0.23260   0.23307   0.24142   0.24959
  Beta virt. eigenvalues --    0.25581   0.26235   0.26416   0.26843   0.27235
  Beta virt. eigenvalues --    0.27774   0.28112   0.28551   0.29142   0.29379
  Beta virt. eigenvalues --    0.30209   0.30593   0.30965   0.31605   0.31873
  Beta virt. eigenvalues --    0.32084   0.32560   0.33050   0.33600   0.34624
  Beta virt. eigenvalues --    0.35099   0.35793   0.36846   0.37813   0.38225
  Beta virt. eigenvalues --    0.40501   0.41819   0.42001   0.42701   0.43527
  Beta virt. eigenvalues --    0.44413   0.46191   0.47236   0.47598   0.48136
  Beta virt. eigenvalues --    0.50332   0.50865   0.51031   0.51924   0.52032
  Beta virt. eigenvalues --    0.52903   0.53725   0.54115   0.54714   0.55528
  Beta virt. eigenvalues --    0.56238   0.57186   0.58160   0.58364   0.59953
  Beta virt. eigenvalues --    0.60643   0.61075   0.61934   0.62730   0.63318
  Beta virt. eigenvalues --    0.63947   0.64304   0.64953   0.65517   0.66060
  Beta virt. eigenvalues --    0.66729   0.67876   0.68406   0.68842   0.70277
  Beta virt. eigenvalues --    0.71279   0.72150   0.72944   0.73221   0.73979
  Beta virt. eigenvalues --    0.74442   0.74808   0.76007   0.76526   0.77306
  Beta virt. eigenvalues --    0.78598   0.79129   0.79988   0.80925   0.82078
  Beta virt. eigenvalues --    0.82247   0.82679   0.83273   0.83893   0.84940
  Beta virt. eigenvalues --    0.85748   0.86101   0.87179   0.87984   0.88454
  Beta virt. eigenvalues --    0.88739   0.89249   0.89893   0.90536   0.91066
  Beta virt. eigenvalues --    0.91290   0.91758   0.93127   0.94417   0.94940
  Beta virt. eigenvalues --    0.95494   0.96530   0.97552   0.98049   0.99328
  Beta virt. eigenvalues --    0.99656   0.99937   1.02117   1.02281   1.03590
  Beta virt. eigenvalues --    1.04634   1.04811   1.07831   1.08666   1.09343
  Beta virt. eigenvalues --    1.12334   1.12696   1.14656   1.15095   1.16033
  Beta virt. eigenvalues --    1.17101   1.18970   1.20609   1.22200   1.23343
  Beta virt. eigenvalues --    1.24010   1.26007   1.29375   1.30666   1.31792
  Beta virt. eigenvalues --    1.32322   1.36857   1.38144   1.39643   1.40192
  Beta virt. eigenvalues --    1.41497   1.44368   1.45614   1.46176   1.48220
  Beta virt. eigenvalues --    1.48908   1.49237   1.50413   1.51609   1.53030
  Beta virt. eigenvalues --    1.56120   1.57654   1.59592   1.62560   1.63139
  Beta virt. eigenvalues --    1.63311   1.65956   1.66115   1.67565   1.68303
  Beta virt. eigenvalues --    1.68459   1.69640   1.71102   1.72285   1.73319
  Beta virt. eigenvalues --    1.75053   1.75702   1.76554   1.77672   1.78835
  Beta virt. eigenvalues --    1.79268   1.79817   1.80663   1.81021   1.81871
  Beta virt. eigenvalues --    1.82721   1.84054   1.84474   1.85205   1.86076
  Beta virt. eigenvalues --    1.87294   1.88182   1.89774   1.91232   1.93121
  Beta virt. eigenvalues --    1.94256   1.95334   1.95899   1.98129   1.98407
  Beta virt. eigenvalues --    1.99133   1.99723   2.02610   2.03416   2.04514
  Beta virt. eigenvalues --    2.06019   2.06853   2.07664   2.10749   2.12841
  Beta virt. eigenvalues --    2.13580   2.15180   2.16326   2.17306   2.24707
  Beta virt. eigenvalues --    2.26101   2.28059   2.29880   2.31885   2.33038
  Beta virt. eigenvalues --    2.34431   2.36850   2.38761   2.39415   2.40228
  Beta virt. eigenvalues --    2.41385   2.43083   2.44985   2.47530   2.49245
  Beta virt. eigenvalues --    2.49877   2.53923   2.54930   2.55930   2.58556
  Beta virt. eigenvalues --    2.59030   2.60630   2.64030   2.65400   2.66129
  Beta virt. eigenvalues --    2.68309   2.70866   2.75391   2.76183   2.77744
  Beta virt. eigenvalues --    2.80869   2.82480   2.82723   2.83262   2.84209
  Beta virt. eigenvalues --    2.84305   2.85366   2.85910   2.86970   2.87286
  Beta virt. eigenvalues --    2.88287   2.89642   2.89772   2.91194   2.93230
  Beta virt. eigenvalues --    2.94646   2.95454   2.95798   2.96967   2.98096
  Beta virt. eigenvalues --    2.98459   2.99722   3.02806   3.04012   3.04417
  Beta virt. eigenvalues --    3.06801   3.08212   3.16037   3.19192   3.19849
  Beta virt. eigenvalues --    3.23954   3.26180   3.28221   3.30241   3.31272
  Beta virt. eigenvalues --    3.31553   3.34499   3.35842   3.37403   3.38382
  Beta virt. eigenvalues --    3.41574   3.42151   3.43030   3.45214   3.48311
  Beta virt. eigenvalues --    3.50038   3.53945   3.56418   3.59721   3.63801
  Beta virt. eigenvalues --    3.64727   3.76382   3.96289   4.47262   4.57520
  Beta virt. eigenvalues --    4.62173   4.64412   4.72512   4.73952   4.74832
  Beta virt. eigenvalues --    4.86673   4.91345   5.03110   5.46493   5.81788
  Beta virt. eigenvalues --    5.84475   6.10636  22.21651  22.63377  58.49217
  Beta virt. eigenvalues --   58.49252  58.50367  58.50618  58.50837  58.55638
  Beta virt. eigenvalues --   58.56108  58.56392  58.56674  58.56830  95.62716
  Beta virt. eigenvalues --  106.32254 106.33254 106.40284
          Condensed to atoms (all electrons):
               1          2          3          4          5          6
     1  O    8.670984  -0.019382  -0.085588  -0.001626   0.036960  -0.003838
     2  N   -0.019382   7.350475   0.090241  -0.064635  -0.020299   0.015900
     3  C   -0.085588   0.090241   5.432651   0.244254  -0.097577   0.018189
     4  C   -0.001626  -0.064635   0.244254   5.179624   0.607173  -0.034596
     5  C    0.036960  -0.020299  -0.097577   0.607173   5.388978   0.193968
     6  C   -0.003838   0.015900   0.018189  -0.034596   0.193968   5.228430
     7  S   -0.000768   0.004831   0.000321  -0.002438  -0.127835   0.259186
     8  C   -0.071507   0.067551  -0.140554  -0.053424   0.218483  -0.074593
     9  C   -0.016008  -0.090289   0.006668  -0.003179  -0.063775   0.008433
    10  C   -0.005984  -0.085207   0.017644  -0.009662  -0.080547   0.005447
    11  C   -0.002044  -0.103577   0.312927  -0.051959  -0.011131  -0.002305
    12  C   -0.007611  -0.092661   0.312638  -0.074333  -0.000379  -0.001694
    13  H   -0.000744   0.004510  -0.036160   0.406191  -0.050259  -0.001522
    14  H    0.000034  -0.001492   0.002475   0.022476  -0.081475   0.420115
    15  H    0.000144  -0.003565  -0.000046   0.005657  -0.063677   0.407701
    16  H   -0.001580   0.014180  -0.004427   0.004345   0.002785  -0.000872
    17  H   -0.000460   0.006834  -0.000352   0.001012  -0.006810   0.002175
    18  H    0.007577  -0.025373   0.001825  -0.000876   0.008294  -0.000962
    19  H    0.008088  -0.024682  -0.001380  -0.001342   0.018564  -0.001316
    20  H   -0.000672   0.004656  -0.000775   0.001489  -0.002617   0.001918
    21  H   -0.000130   0.006376   0.001940   0.000359  -0.005078   0.003895
    22  H    0.000023   0.004200  -0.053227  -0.006787   0.008347  -0.000696
    23  H   -0.000869   0.007062  -0.046709   0.000971   0.001734  -0.000049
    24  H    0.007399  -0.024109  -0.033903   0.015684  -0.002684   0.000069
    25  H    0.007654  -0.030782  -0.025206   0.015250  -0.001155   0.000017
    26  H   -0.000296   0.009514  -0.047645  -0.002872   0.000078  -0.000029
    27  H   -0.000589   0.010931  -0.061459  -0.003483   0.005196  -0.000509
    28  S   -0.000223   0.000274  -0.001319  -0.031365  -0.004177  -0.004499
    29  O    0.000290   0.003190  -0.002444   0.031652   0.008667   0.004701
    30  O    0.000171  -0.001865  -0.004814   0.024955   0.016314  -0.024467
    31  C    0.000013  -0.000015  -0.000592   0.003436   0.003836  -0.000345
    32  H   -0.000000  -0.000005   0.000031  -0.000143  -0.000385   0.000144
    33  H   -0.000000   0.000003   0.000020   0.000012   0.000048   0.000204
    34  H   -0.000000   0.000001  -0.000026  -0.000531   0.000161  -0.000421
               7          8          9         10         11         12
     1  O   -0.000768  -0.071507  -0.016008  -0.005984  -0.002044  -0.007611
     2  N    0.004831   0.067551  -0.090289  -0.085207  -0.103577  -0.092661
     3  C    0.000321  -0.140554   0.006668   0.017644   0.312927   0.312638
     4  C   -0.002438  -0.053424  -0.003179  -0.009662  -0.051959  -0.074333
     5  C   -0.127835   0.218483  -0.063775  -0.080547  -0.011131  -0.000379
     6  C    0.259186  -0.074593   0.008433   0.005447  -0.002305  -0.001694
     7  S   15.865801  -0.004057   0.003758  -0.000476  -0.000222   0.000888
     8  C   -0.004057   5.423539   0.322270   0.325666   0.018274   0.018147
     9  C    0.003758   0.322270   5.008867  -0.084899  -0.005440   0.004833
    10  C   -0.000476   0.325666  -0.084899   5.034653   0.005053  -0.005961
    11  C   -0.000222   0.018274  -0.005440   0.005053   5.034533  -0.081357
    12  C    0.000888   0.018147   0.004833  -0.005961  -0.081357   5.020171
    13  H    0.000006   0.012212  -0.000896  -0.001512  -0.000591   0.002671
    14  H   -0.042052   0.002705   0.000048  -0.001853  -0.000128  -0.000034
    15  H   -0.041349   0.007822  -0.000907   0.005730   0.000311  -0.000068
    16  H    0.000959  -0.064321   0.412629   0.009173   0.000178  -0.001508
    17  H    0.001042  -0.034546   0.399909  -0.004074   0.000141  -0.000134
    18  H    0.000015  -0.032579   0.412717  -0.003913  -0.000087   0.000040
    19  H    0.000018  -0.040647  -0.002887   0.415205  -0.000328   0.000117
    20  H   -0.000139  -0.038744  -0.003882   0.401270  -0.000074   0.000158
    21  H   -0.001102  -0.056096   0.008338   0.410020  -0.000854  -0.000097
    22  H    0.000012  -0.001324   0.000069  -0.001033   0.410433   0.008321
    23  H    0.000006  -0.001235   0.000171  -0.000078   0.405596  -0.002893
    24  H   -0.000012   0.000510  -0.000000  -0.000311   0.411514  -0.003967
    25  H   -0.000033  -0.002008   0.000199  -0.000056  -0.004426   0.410302
    26  H   -0.000004  -0.000730  -0.000137   0.000162  -0.002181   0.406651
    27  H   -0.000049  -0.000290  -0.001613   0.000100   0.009098   0.412956
    28  S    0.310800   0.001976  -0.003223  -0.000203  -0.000927   0.002058
    29  O   -0.075162  -0.006481  -0.000954   0.000073   0.000312  -0.006076
    30  O   -0.083639  -0.002508   0.000697  -0.000062   0.001142   0.000410
    31  C   -0.052074  -0.000909   0.000184   0.000045   0.000059  -0.000186
    32  H   -0.000600   0.000122  -0.000063  -0.000002  -0.000001  -0.000006
    33  H    0.001484  -0.000037  -0.000002   0.000001  -0.000000  -0.000005
    34  H    0.002661   0.000117   0.000004  -0.000001  -0.000000   0.000008
              13         14         15         16         17         18
     1  O   -0.000744   0.000034   0.000144  -0.001580  -0.000460   0.007577
     2  N    0.004510  -0.001492  -0.003565   0.014180   0.006834  -0.025373
     3  C   -0.036160   0.002475  -0.000046  -0.004427  -0.000352   0.001825
     4  C    0.406191   0.022476   0.005657   0.004345   0.001012  -0.000876
     5  C   -0.050259  -0.081475  -0.063677   0.002785  -0.006810   0.008294
     6  C   -0.001522   0.420115   0.407701  -0.000872   0.002175  -0.000962
     7  S    0.000006  -0.042052  -0.041349   0.000959   0.001042   0.000015
     8  C    0.012212   0.002705   0.007822  -0.064321  -0.034546  -0.032579
     9  C   -0.000896   0.000048  -0.000907   0.412629   0.399909   0.412717
    10  C   -0.001512  -0.001853   0.005730   0.009173  -0.004074  -0.003913
    11  C   -0.000591  -0.000128   0.000311   0.000178   0.000141  -0.000087
    12  C    0.002671  -0.000034  -0.000068  -0.001508  -0.000134   0.000040
    13  H    0.508508   0.002133  -0.000026  -0.000041  -0.000001   0.000004
    14  H    0.002133   0.489285  -0.014207  -0.000034  -0.000017   0.000001
    15  H   -0.000026  -0.014207   0.530609   0.000088  -0.000045   0.000011
    16  H   -0.000041  -0.000034   0.000088   0.537190  -0.019212  -0.015051
    17  H   -0.000001  -0.000017  -0.000045  -0.019212   0.566244  -0.021019
    18  H    0.000004   0.000001   0.000011  -0.015051  -0.021019   0.522014
    19  H    0.000005   0.000003  -0.000033  -0.000007  -0.000253   0.001938
    20  H    0.000002   0.000020  -0.000041   0.000099   0.001238  -0.000159
    21  H   -0.000015  -0.000012  -0.000253  -0.000140   0.000072   0.000030
    22  H    0.000069   0.000004   0.000002  -0.000001   0.000000   0.000000
    23  H    0.000531   0.000001   0.000000  -0.000000  -0.000000   0.000000
    24  H    0.000018   0.000000  -0.000000  -0.000001   0.000000  -0.000002
    25  H   -0.000042  -0.000000   0.000000  -0.000004  -0.000000  -0.000009
    26  H    0.000172  -0.000001   0.000000   0.000008  -0.000000  -0.000000
    27  H   -0.000113  -0.000002   0.000000   0.000312   0.000010  -0.000013
    28  S    0.003526  -0.014304   0.002872  -0.000853  -0.000988   0.000382
    29  O   -0.000352   0.001042  -0.000796  -0.000044   0.000185  -0.000012
    30  O   -0.001044   0.011541  -0.001259   0.000063   0.000020  -0.000010
    31  C   -0.000117   0.000454  -0.000046   0.000032   0.000049  -0.000003
    32  H    0.000000   0.000005  -0.000001  -0.000000  -0.000000   0.000000
    33  H    0.000000  -0.000011   0.000000   0.000000   0.000000  -0.000000
    34  H    0.000001   0.000024  -0.000000   0.000000  -0.000000   0.000000
              19         20         21         22         23         24
     1  O    0.008088  -0.000672  -0.000130   0.000023  -0.000869   0.007399
     2  N   -0.024682   0.004656   0.006376   0.004200   0.007062  -0.024109
     3  C   -0.001380  -0.000775   0.001940  -0.053227  -0.046709  -0.033903
     4  C   -0.001342   0.001489   0.000359  -0.006787   0.000971   0.015684
[...]
     7  S   -0.019777   0.000398
     8  C    0.207198  -0.035544
     9  C    0.068618   0.023045
    10  C    0.030372   0.020554
    11  C    0.039555   0.020484
    12  C    0.061437   0.023743
    28  S    0.890413  -0.000081
    29  O   -0.511842   0.000002
    30  O   -0.568859  -0.000020
    31  C    0.150002  -0.000010
 Electronic spatial extent (au):  <R**2>=           4766.0550
 Charge=             -0.0000 electrons
 Dipole moment (field-independent basis, Debye):
    X=              4.1664    Y=              1.8405    Z=             -2.2422  Tot=              5.0768
 Quadrupole moment (field-independent basis, Debye-Ang):
   XX=           -107.2062   YY=           -109.0331   ZZ=           -116.3807
   XY=              5.3086   XZ=              7.0963   YZ=             -0.6329
 Traceless Quadrupole moment (field-independent basis, Debye-Ang):
   XX=              3.6671   YY=              1.8402   ZZ=             -5.5074
   XY=              5.3086   XZ=              7.0963   YZ=             -0.6329
 Octapole moment (field-independent basis, Debye-Ang**2):
  XXX=            184.7190  YYY=             -3.7870  ZZZ=              0.1873  XYY=            -13.8961
  XXY=             -8.4907  XXZ=             -9.9441  XZZ=              0.8000  YZZ=              5.9650
  YYZ=             -2.4506  XYZ=              0.5207
 Hexadecapole moment (field-independent basis, Debye-Ang**3):
 XXXX=          -3940.3591 YYYY=          -1372.2269 ZZZZ=           -687.6979 XXXY=            -20.8966
 XXXZ=            127.8042 YYYX=            -16.8867 YYYZ=              0.9872 ZZZX=            -10.4522
 ZZZY=             -2.4966 XXYY=           -931.8737 XXZZ=           -860.1337 YYZZ=           -351.6822
 XXYZ=             -4.1099 YYXZ=             -4.3152 ZZXY=             14.7150
 N-N= 1.521165952925D+03 E-N=-6.497743871622D+03  KE= 1.459897360851D+03
                          Isotropic Fermi Contact Couplings
        Atom                 a.u.       MegaHertz       Gauss      10(-4) cm-1
     1  O(17)              0.08643     -52.39298     -18.69512     -17.47642
     2  N(14)              0.10708      34.59643      12.34487      11.54013
     3  C(13)             -0.01465     -16.46731      -5.87595      -5.49291
     4  C(13)             -0.00021      -0.24030      -0.08575      -0.08016
     5  C(13)             -0.00039      -0.43377      -0.15478      -0.14469
     6  C(13)             -0.00073      -0.81606      -0.29119      -0.27221
     7  S(33)             -0.00001      -0.00341      -0.00122      -0.00114
     8  C(13)             -0.01491     -16.76653      -5.98272      -5.59271
     9  C(13)              0.01252      14.07315       5.02165       4.69430
    10  C(13)              0.01780      20.00535       7.13841       6.67307
    11  C(13)              0.01744      19.61125       6.99778       6.54161
    12  C(13)              0.01298      14.58879       5.20564       4.86630
    13  H(1)              -0.00032      -1.42528      -0.50858      -0.47542
    14  H(1)               0.00002       0.07340       0.02619       0.02448
    15  H(1)               0.00001       0.05036       0.01797       0.01680
    16  H(1)              -0.00039      -1.75540      -0.62637      -0.58554
    17  H(1)               0.00027       1.19889       0.42779       0.39991
    18  H(1)              -0.00052      -2.33922      -0.83469      -0.78028
    19  H(1)              -0.00049      -2.18904      -0.78110      -0.73018
    20  H(1)               0.00039       1.73261       0.61824       0.57794
    21  H(1)              -0.00033      -1.49204      -0.53240      -0.49769
    22  H(1)              -0.00034      -1.50751      -0.53792      -0.50285
    23  H(1)               0.00036       1.61277       0.57548       0.53796
    24  H(1)              -0.00047      -2.10282      -0.75034      -0.70143
    25  H(1)              -0.00051      -2.27962      -0.81342      -0.76040
    26  H(1)               0.00031       1.36857       0.48834       0.45651
    27  H(1)              -0.00040      -1.78666      -0.63752      -0.59596
    28  S(33)              0.00000       0.00048       0.00017       0.00016
    29  O(17)             -0.00001       0.00384       0.00137       0.00128
    30  O(17)             -0.00003       0.01877       0.00670       0.00626
    31  C(13)             -0.00000      -0.00506      -0.00181      -0.00169
    32  H(1)               0.00000       0.00105       0.00037       0.00035
    33  H(1)               0.00000       0.00053       0.00019       0.00018
    34  H(1)              -0.00000      -0.00057      -0.00020      -0.00019
 --------------------------------------------------------
       Center         ----  Spin Dipole Couplings  ----
                      3XX-RR        3YY-RR        3ZZ-RR
 --------------------------------------------------------
     1   Atom       -0.194504     -0.886147      1.080651
     2   Atom       -0.136952     -0.554882      0.691834
     3   Atom       -0.005518      0.011811     -0.006293
     4   Atom        0.004831     -0.005125      0.000294
     5   Atom        0.008491     -0.007183     -0.001307
     6   Atom        0.002272     -0.001423     -0.000849
     7   Atom        0.002306     -0.001294     -0.001012
     8   Atom        0.003173      0.004965     -0.008138
     9   Atom       -0.011028     -0.000812      0.011840
    10   Atom       -0.009981      0.019766     -0.009785
    11   Atom       -0.000946      0.002495     -0.001548
    12   Atom       -0.016948      0.015665      0.001283
    13   Atom        0.001784     -0.001065     -0.000718
    14   Atom        0.001460     -0.001214     -0.000247
    15   Atom        0.001226     -0.000687     -0.000539
    16   Atom        0.003353     -0.003383      0.000029
    17   Atom        0.000432      0.001931     -0.002363
    18   Atom       -0.002115      0.004370     -0.002255
    19   Atom       -0.004852      0.009723     -0.004871
    20   Atom       -0.001235      0.003894     -0.002659
    21   Atom       -0.005623      0.000538      0.005085
    22   Atom       -0.005778     -0.002147      0.007925
    23   Atom       -0.002708      0.003615     -0.000906
    24   Atom       -0.001800      0.003923     -0.002123
    25   Atom       -0.004853      0.009921     -0.005069
    26   Atom       -0.002833      0.005384     -0.002550
    27   Atom       -0.000429      0.001840     -0.001411
    28   Atom        0.001423     -0.000726     -0.000698
    29   Atom        0.001469     -0.000689     -0.000780
    30   Atom        0.001036     -0.000589     -0.000447
    31   Atom        0.000663     -0.000329     -0.000333
    32   Atom        0.000621     -0.000311     -0.000309
    33   Atom        0.000519     -0.000249     -0.000270
    34   Atom        0.000552     -0.000285     -0.000266
 --------------------------------------------------------
                        XY            XZ            YZ
 --------------------------------------------------------
     1   Atom       -0.307764      1.368048     -0.496001
     2   Atom       -0.180640      0.782670     -0.297253
     3   Atom       -0.008428     -0.001072      0.006552
     4   Atom       -0.006310     -0.007212      0.003044
     5   Atom        0.002639     -0.007465     -0.001317
     6   Atom        0.000983     -0.001780     -0.000403
     7   Atom        0.000911      0.000512      0.000191
     8   Atom        0.012589     -0.000903     -0.002609
     9   Atom        0.010156      0.007712      0.021562
    10   Atom       -0.010872      0.004111     -0.017656
    11   Atom        0.015194      0.013921      0.018635
    12   Atom       -0.003515     -0.001332     -0.023058
    13   Atom       -0.002809     -0.002842      0.001656
    14   Atom        0.000293     -0.001636     -0.000195
    15   Atom        0.001542     -0.001640     -0.000912
    16   Atom        0.003585      0.007073      0.002026
    17   Atom        0.005267      0.000572      0.001150
    18   Atom        0.005938      0.002197      0.007969
    19   Atom       -0.001656     -0.001159     -0.005208
    20   Atom        0.003298     -0.001015     -0.003089
    21   Atom        0.001117      0.000164     -0.007469
    22   Atom        0.000533      0.002768      0.005403
    23   Atom       -0.000984     -0.000124      0.004633
    24   Atom        0.005473      0.001929      0.006975
    25   Atom       -0.001457     -0.001341     -0.005333
    26   Atom       -0.003437     -0.000671      0.000345
    27   Atom       -0.005892      0.004822     -0.004367
    28   Atom       -0.000212     -0.000169      0.000027
    29   Atom       -0.000555      0.000340     -0.000081
    30   Atom       -0.000406     -0.000557      0.000137
    31   Atom       -0.000043     -0.000046      0.000003
    32   Atom        0.000035      0.000068      0.000003
    33   Atom       -0.000125     -0.000021      0.000003
    34   Atom        0.000020     -0.000132     -0.000002
 --------------------------------------------------------


 ---------------------------------------------------------------------------------
              Anisotropic Spin Dipole Couplings in Principal Axis System
 ---------------------------------------------------------------------------------

       Atom             a.u.   MegaHertz   Gauss  10(-4) cm-1        Axes

              Baa    -1.0670    77.205    27.549    25.753  0.8281 -0.1024 -0.5511
     1 O(17)  Bbb    -1.0008    72.414    25.839    24.155  0.1916  0.9757  0.1066
              Bcc     2.0677  -149.620   -53.388   -49.908  0.5268 -0.1939  0.8276
 
              Baa    -0.6228   -24.019    -8.571    -8.012  0.1805  0.9770  0.1135
     2 N(14)  Bbb    -0.6080   -23.450    -8.368    -7.822  0.8432 -0.0943 -0.5293
              Bcc     1.2308    47.469    16.938    15.834  0.5064 -0.1912  0.8408
 
              Baa    -0.0100    -1.342    -0.479    -0.448  0.6881  0.4393 -0.5775
     3 C(13)  Bbb    -0.0070    -0.944    -0.337    -0.315  0.6366  0.0166  0.7710
              Bcc     0.0170     2.286     0.816     0.763 -0.3484  0.8982  0.2682
 
              Baa    -0.0082    -1.103    -0.394    -0.368  0.4717  0.8776  0.0858
     4 C(13)  Bbb    -0.0046    -0.613    -0.219    -0.204  0.4348 -0.3161  0.8432
              Bcc     0.0128     1.716     0.612     0.572  0.7671 -0.3605 -0.5307
 
              Baa    -0.0076    -1.022    -0.365    -0.341 -0.1469  0.9886  0.0325
     5 C(13)  Bbb    -0.0053    -0.716    -0.255    -0.239  0.4687  0.0406  0.8824
              Bcc     0.0130     1.738     0.620     0.580  0.8710  0.1449 -0.4694
 
              Baa    -0.0017    -0.228    -0.081    -0.076 -0.4257  0.7157 -0.5536
     6 C(13)  Bbb    -0.0016    -0.217    -0.078    -0.073  0.1661  0.6633  0.7297
              Bcc     0.0033     0.445     0.159     0.148  0.8895  0.2187 -0.4013
 
              Baa    -0.0015    -0.062    -0.022    -0.021 -0.2097  0.9660 -0.1514
     7 S(33)  Bbb    -0.0011    -0.044    -0.016    -0.015 -0.1783  0.1144  0.9773
              Bcc     0.0026     0.107     0.038     0.036  0.9614  0.2319  0.1483
 
              Baa    -0.0096    -1.287    -0.459    -0.429 -0.4914  0.5467  0.6779
     8 C(13)  Bbb    -0.0074    -0.987    -0.352    -0.329  0.5505 -0.4082  0.7282
              Bcc     0.0169     2.274     0.811     0.758  0.6749  0.7311 -0.1004
 
              Baa    -0.0193    -2.596    -0.926    -0.866 -0.5575  0.7410 -0.3744
     9 C(13)  Bbb    -0.0122    -1.636    -0.584    -0.546  0.7822  0.3176 -0.5360
              Bcc     0.0315     4.232     1.510     1.412  0.2783  0.5917  0.7566
 
              Baa    -0.0182    -2.439    -0.870    -0.814  0.1635  0.4543  0.8757
    10 C(13)  Bbb    -0.0131    -1.757    -0.627    -0.586  0.9487  0.1711 -0.2658
              Bcc     0.0313     4.196     1.497     1.400 -0.2706  0.8743 -0.4031
 
              Baa    -0.0183    -2.453    -0.875    -0.818 -0.0355 -0.6528  0.7567
    11 C(13)  Bbb    -0.0138    -1.851    -0.661    -0.618  0.8476 -0.4207 -0.3233
              Bcc     0.0321     4.304     1.536     1.436  0.5294  0.6299  0.5683
 
              Baa    -0.0196    -2.628    -0.938    -0.876  0.7771  0.3970  0.4884
    12 C(13)  Bbb    -0.0131    -1.762    -0.629    -0.588 -0.6280  0.4383  0.6430
              Bcc     0.0327     4.390     1.566     1.464 -0.0412  0.8064 -0.5899
 
              Baa    -0.0028    -1.497    -0.534    -0.499  0.5980  0.7767  0.1978
    13 H(1)   Bbb    -0.0025    -1.333    -0.476    -0.445  0.2822 -0.4350  0.8551
              Bcc     0.0053     2.831     1.010     0.944  0.7502 -0.4555 -0.4793
 
              Baa    -0.0013    -0.671    -0.240    -0.224  0.2464  0.7964  0.5522
    14 H(1)   Bbb    -0.0012    -0.655    -0.234    -0.219  0.4636 -0.5972  0.6545
              Bcc     0.0025     1.326     0.473     0.442  0.8511  0.0947 -0.5164
 
              Baa    -0.0015    -0.824    -0.294    -0.275 -0.4915  0.8708 -0.0114
    15 H(1)   Bbb    -0.0015    -0.809    -0.289    -0.270  0.3974  0.2359  0.8868
              Bcc     0.0031     1.634     0.583     0.545  0.7749  0.4313 -0.4621
 
              Baa    -0.0059    -3.133    -1.118    -1.045  0.6494 -0.4190 -0.6346
    16 H(1)   Bbb    -0.0043    -2.299    -0.820    -0.767  0.0627  0.8612 -0.5044
              Bcc     0.0102     5.431     1.938     1.812  0.7579  0.2878  0.5855
 
              Baa    -0.0042    -2.241    -0.799    -0.747  0.7276 -0.6601  0.1865
    17 H(1)   Bbb    -0.0025    -1.320    -0.471    -0.440 -0.2301  0.0212  0.9729
              Bcc     0.0067     3.560     1.270     1.188  0.6462  0.7508  0.1365
 
              Baa    -0.0081    -4.337    -1.547    -1.447  0.3510 -0.6163  0.7050
    18 H(1)   Bbb    -0.0042    -2.244    -0.801    -0.748  0.8492 -0.1076 -0.5169
              Bcc     0.0123     6.580     2.348     2.195  0.3945  0.7801  0.4856
 
              Baa    -0.0075    -4.019    -1.434    -1.341  0.5256  0.2916  0.7992
    19 H(1)   Bbb    -0.0040    -2.108    -0.752    -0.703  0.8474 -0.0963 -0.5222
              Bcc     0.0115     6.127     2.186     2.044 -0.0753  0.9517 -0.2977
 
              Baa    -0.0039    -2.102    -0.750    -0.701 -0.1916  0.4288  0.8829
    20 H(1)   Bbb    -0.0027    -1.434    -0.512    -0.478  0.8958 -0.2912  0.3358
              Bcc     0.0066     3.536     1.262     1.179  0.4011  0.8552 -0.3283
 
              Baa    -0.0064    -3.396    -1.212    -1.133  0.8083 -0.4877 -0.3298
    21 H(1)   Bbb    -0.0043    -2.280    -0.813    -0.760  0.5878  0.6373  0.4984
              Bcc     0.0106     5.675     2.025     1.893 -0.0329 -0.5967  0.8018
 
              Baa    -0.0064    -3.429    -1.224    -1.144  0.9412  0.2134 -0.2619
    22 H(1)   Bbb    -0.0043    -2.298    -0.820    -0.766 -0.2950  0.8969 -0.3294
              Bcc     0.0107     5.727     2.044     1.910  0.1646  0.3873  0.9071
 
              Baa    -0.0039    -2.107    -0.752    -0.703 -0.3367 -0.5232  0.7829
    23 H(1)   Bbb    -0.0026    -1.412    -0.504    -0.471  0.9367 -0.1010  0.3354
              Bcc     0.0066     3.519     1.256     1.174 -0.0964  0.8462  0.5241
 
              Baa    -0.0073    -3.875    -1.383    -1.293  0.3706 -0.6152  0.6958
    24 H(1)   Bbb    -0.0037    -1.995    -0.712    -0.665  0.8356 -0.1062 -0.5390
              Bcc     0.0110     5.870     2.095     1.958  0.4055  0.7812  0.4747
 
              Baa    -0.0078    -4.159    -1.484    -1.387  0.5109  0.2861  0.8106
    25 H(1)   Bbb    -0.0039    -2.075    -0.740    -0.692  0.8575 -0.1041 -0.5038
              Bcc     0.0117     6.234     2.224     2.079 -0.0597  0.9525 -0.2985
 
              Baa    -0.0042    -2.262    -0.807    -0.755  0.9032  0.3120  0.2947
    26 H(1)   Bbb    -0.0024    -1.294    -0.462    -0.432 -0.2575 -0.1555  0.9537
              Bcc     0.0067     3.556     1.269     1.186 -0.3434  0.9373  0.0601
 
              Baa    -0.0060    -3.187    -1.137    -1.063  0.7802  0.2741 -0.5622
    27 H(1)   Bbb    -0.0043    -2.293    -0.818    -0.765  0.2359  0.7035  0.6704
              Bcc     0.0103     5.480     1.956     1.828 -0.5793  0.6557 -0.4842
 
              Baa    -0.0007    -0.031    -0.011    -0.010  0.0742  0.9641 -0.2550
    28 S(33)  Bbb    -0.0007    -0.029    -0.010    -0.010  0.1008  0.2471  0.9637
              Bcc     0.0015     0.060     0.021     0.020  0.9921 -0.0972 -0.0789
 
              Baa    -0.0008     0.060     0.021     0.020 -0.1692 -0.0996  0.9805
    29 O(17)  Bbb    -0.0008     0.060     0.021     0.020  0.2142  0.9674  0.1352
              Bcc     0.0017    -0.120    -0.043    -0.040  0.9620 -0.2329  0.1424
 
              Baa    -0.0007     0.050     0.018     0.017  0.1997  0.9754 -0.0939
    30 O(17)  Bbb    -0.0006     0.046     0.016     0.015  0.3220  0.0252  0.9464
              Bcc     0.0013    -0.095    -0.034    -0.032  0.9255 -0.2192 -0.3090
 
              Baa    -0.0003    -0.045    -0.016    -0.015  0.0387 -0.1567  0.9869
    31 C(13)  Bbb    -0.0003    -0.044    -0.016    -0.015  0.0496  0.9867  0.1547
              Bcc     0.0007     0.089     0.032     0.030  0.9980 -0.0430 -0.0459
 
              Baa    -0.0003    -0.168    -0.060    -0.056 -0.0685 -0.1073  0.9919
    32 H(1)   Bbb    -0.0003    -0.167    -0.060    -0.056 -0.0450  0.9935  0.1043
              Bcc     0.0006     0.335     0.119     0.112  0.9966  0.0375  0.0729
 
              Baa    -0.0003    -0.144    -0.051    -0.048  0.0246 -0.0158  0.9996
    33 H(1)   Bbb    -0.0003    -0.144    -0.051    -0.048  0.1568  0.9876  0.0118
              Bcc     0.0005     0.288     0.103     0.096  0.9873 -0.1564 -0.0268
 
              Baa    -0.0003    -0.153    -0.055    -0.051  0.1505 -0.4214  0.8943
    34 H(1)   Bbb    -0.0003    -0.152    -0.054    -0.051  0.0439  0.9066  0.4197
              Bcc     0.0006     0.306     0.109     0.102  0.9876  0.0239 -0.1549
 

 ---------------------------------------------------------------------------------

 No NMR shielding tensors so no spin-rotation constants.
 Leave Link  601 at Mon Jun 17 21:25:14 2019, MaxMem=  8053063680 cpu:               0.0 elap:               0.4
 (Enter /data2/g16/g16/l9999.exe)
 1\1\GINC-CU05\SP\UPBE1PBE\Gen\C10H18N1O3S2(2)\ROOT\17-Jun-2019\0\\#p g
 en 6d pbe1pbe\\start preoptimized\\0,2\O,0,-3.672182,0.168649,1.038701
 \N,0,-2.641331,0.044469,0.315421\C,0,-2.170233,-1.267829,-0.170832\C,0
 ,-0.862283,-0.864392,-0.782339\C,0,-0.596404,0.439574,-0.648788\C,0,0.
 609645,1.120876,-1.194488\S,0,1.947067,1.450561,0.033285\C,0,-1.701506
 ,1.165435,0.092041\C,0,-1.281336,1.74631,1.444111\C,0,-2.387099,2.2380
 54,-0.761414\C,0,-3.154901,-1.827544,-1.20068\C,0,-2.013442,-2.230064,
 1.010931\H,0,-0.208033,-1.578474,-1.276613\H,0,1.066289,0.534749,-1.99
 3942\H,0,0.383848,2.119995,-1.583368\H,0,-0.745215,1.00434,2.041119\H,
 0,-0.632183,2.618065,1.309561\H,0,-2.180228,2.055791,1.985922\H,0,-3.2
 98192,2.572935,-0.252846\H,0,-1.734685,3.10753,-0.900269\H,0,-2.662398
 ,1.842868,-1.743986\H,0,-3.255085,-1.150158,-2.056764\H,0,-2.810184,-2
 .803333,-1.565176\H,0,-4.138369,-1.953448,-0.737038\H,0,-2.980151,-2.3
 43214,1.51257\H,0,-1.677977,-3.211613,0.657568\H,0,-1.282009,-1.85325,
 1.730199\S,0,2.753923,-0.529988,0.105376\O,0,2.327232,-1.20829,1.34822
 4\O,0,2.498439,-1.169162,-1.208459\C,0,4.510088,-0.18318,0.238146\H,0,
 4.669352,0.429418,1.129287\H,0,4.989613,-1.158787,0.349706\H,0,4.83039
 8,0.324714,-0.670895\\Version=AM64L-G16RevB.01\State=2-A\HF=-1467.5485
 067\S2=0.754994\S2-1=0.\S2A=0.750017\RMSD=7.951e-09\Dipole=1.6358308,0
 .7264966,-0.886375\Quadrupole=2.7344766,1.38254,-4.1170166,3.9528633,5
 .2583949,-0.4738533\PG=C01 [X(C10H18N1O3S2)]\\@


 The arm of the moral universe is long, but it bends toward justice.
 -- Martin Luther King, Jr.
 Elapsed time:       0 days  0 hours  2 minutes 38.6 seconds.
 File lengths (MBytes):  RWF=    181 Int=      0 D2E=      0 Chk=     15 Scr=      1
 Normal termination of Gaussian 16 at Mon Jun 17 21:25:15 2019.
