 Entering Gaussian System, Link 0=g16
 AtFile(1): /home/malgo/Basis_sets/n07d_pbe0.gbs
            -H 0
             6-31G
             S   1 1.00       0.000000000000
                  0.4000000000D+00  0.10000000D+01
             P   1 1.00       0.000000000000
                  0.7500000000D+00  0.10000000D+01
             ****
             -He 0
             6-31+G**
             ****
             -Li 0
             6-31+G**
             ****
             -Be 0
             6-31+G**
             ****
             -B 0
             6-31G
             S   1 1.00       0.000000000000
                  0.7000000000D+01  0.1000000000D+01
             P   1 1.00       0.000000000000
                  0.3500000000D-01  0.1000000000D+01
             D   1 1.00
                  0.3430000000D+00  0.1000000000D+01
             ****
             -C 0
             6-31G
             S   1 1.00       0.000000000000
                  0.8700000000D+01  0.1000000000D+01
             P   1 1.00       0.000000000000
                  0.5000000000D-01  0.1000000000D+01
             D   1 1.00
                  0.8200000000D+00  0.1000000000D+01
             ****
             -N 0
             6-31G
             S   1 1.00       0.000000000000
                  0.1370000000D+02  0.1000000000D+01
             P   1 1.00       0.000000000000
                  0.5300000000D-01  0.1000000000D+01
             D   1 1.00       0.000000000000
                  0.1015000000D+01  0.1000000000D+01
             ****
             -O 0
             6-31G
             S   1 1.00
                  0.1600000000D+02  0.1000000000D+01
             P   1 1.00       0.000000000000
                  0.6500000000D-01  0.1000000000D+01
             D   1 1.00        0.000000000000
                  0.1190000000D+01  0.1000000000D+01
             D   1 1.00        0.000000000000
                  0.1800000000D+00  0.1000000000D+01
             ****
             -F 0
             6-31G
             S   1 1.00
                  0.1770000000D+02  0.1000000000D+01
             P   1 1.00       0.000000000000
                  0.8300000000D-01  0.1000000000D+01
             D   1 1.00       0.000000000000
                  1.3700000000D+00  0.1000000000D+01
             D   1 1.00       0.000000000000
                  0.2300000000D+00  0.1000000000D+01
             ****
             -Ne 0
             6-31+G**
             ****
             -Na 0
             6-31+G**
             ****
             -Mg 0
             6-31+G**
             ****
             -Al 0
             6-31G
             S   1 1.00      0.000000000000
                  0.3100000000D+01  0.1000000000D+01
             P   1 1.00      0.000000000000
                  0.1500000000D-01  0.1000000000D+01
             D   1 1.00      0.000000000000
                  0.1890000000D+00  0.1000000000D+01
             ****
             -Si 0
             6-31G
             S   1 1.00      0.000000000000
                  0.5000000000D+01  0.1000000000D+01
             P   1 1.00       0.000000000000
                  0.3300000000D-01  0.1000000000D+01
             D   1 1.0        0.000000000000
                  0.2750000000D+00  0.1000000000D+01
             ****
             -P  0
             6-31G
             S   1 1.00       0.000000000000
                  0.6300000000D+01  0.1000000000D+01
             P   1 1.00       0.000000000000
                  0.3500000000D-01  0.1000000000D+01
             D   1 1.00       0.000000000000
                  0.3730000000D+00  0.1000000000D+01
             ****
             -S  0
             6-31G
             S   1  1.00      0.000000000000
                  0.7500000000D+01  0.1000000000D+01
             P   1 1.00       0.000000000000
                  0.4100000000D-01  0.1000000000D+01
             D   1 1.00       0.000000000000
                  0.4790000000D+00  0.1000000000D+01
             ****
            -Cl 0
             6-31G
             S   1 1.00       0.000000000000
                  0.8500000000D+01  0.1000000000D+01
             P   1 1.00       0.000000000000
                  0.4800000000D-01  0.1000000000D+01
             D   1 1.00       0.000000000000
                  0.6000000000D+00  0.1000000000D+01
             D   1 1.00       0.000000000000
                  0.1960000000D+00  0.1000000000D+01
             ****
            -Br 0
             S   3 1.00       0.000000000000
                  0.4721881000D+01  0.1749732514D+00
                  0.2257555000D+01 -0.7074172290D+00
                  0.3896080000D+00  0.1258999543D+01
             S   1 1.00       0.000000000000
                  0.1471340000D+00  0.1000000000D+01
             P   3 1.00       0.000000000000
                  0.1896942000D+01 -0.2464576731D+00
                  0.9108990000D+00  0.3623179892D+00
                  0.3168550000D+00  0.8338469725D+00
             P   1 1.00       0.000000000000
                  0.1095030000D+00  0.1000000000D+01
             P   1 1.00       0.000000000000
                  0.3609700000D-01  0.1000000000D+01
             D   1 1.00
                  0.4750000000D+00  0.1000000000D+01
             D   1 1.00
                  0.1280000000D+00  0.1000000000D+01
             ****
            -I   0
             S   3 1.00       0.000000000000
                  0.2122765000D+01  0.2063429899D+01
                  0.1770481000D+01 -0.2869526473D+01
                  0.3130840000D+00  0.1404747074D+01
             S   1 1.00       0.000000000000
                  0.1320000000D+00  0.1000000000D+01
             P   3 1.00       0.000000000000
                  0.2432887000D+01  0.7732753148D+00
                  0.2137249000D+01 -0.1020833156D+01
                  0.3145460000D+00  0.1095666871D+01
             P   1 1.00       0.000000000000
                  0.1049450000D+00  0.1000000000D+01
             P   1 1.00       0.000000000000
                  0.3264100000D-01  0.1000000000D+01
             D   1 1.00
                  0.300000000          1.00000000
             D   1 1.00
                  0.090000000          1.00000000
             ****
             -Zn 0
             SP   6 1.00       0.000000000000
                  0.6936492000D+02 -0.4440098182D-02 -0.7689261805D-02
                  0.2362082000D+02  0.7505253308D-01 -0.2997981924D-01
                  0.1018471000D+02  0.2533111104D+00  0.7082410821D-01
                  0.4334082000D+01 -0.2881897118D+00  0.4046140897D+00
                  0.1810918000D+01 -0.7267052298D+00  0.4882324876D+00
                  0.7148410000D+00 -0.2133439088D+00  0.1751969956D+00
             SP   3 1.00       0.000000000000
                  0.2823842000D+01  0.4898545031D-01 -0.1586762981D+00
                  0.1039543000D+01  0.2592794075D+00  0.8379326898D-01
                  0.1432640000D+00 -0.1115711463D+01  0.9840546881D+00
             SP   1 1.00       0.000000000000
                  0.4929600000D-01  0.1000000000D+01  0.1000000000D+01
             S    1 1.00       0.000000000000
                  0.1620000000D+00  0.1000000000D+01
             D    3 1.00       0.000000000000
                  0.3370764000D+02  0.9262647815D-01
                  0.9061106000D+01  0.4002979920D+00
                  0.2738383000D+01  0.6896607863D+00
             D    1 1.00
                  0.2440000000D+01  0.1000000000D+01
             D    1 1.00       0.000000000000
                  0.7302940000D+00  0.1000000000D+01
             D    1 1.00       0.000000000000
                  0.1620000000D+00  0.1000000000D+01
            ****
 Initial command:
 /data2/g16/g16/l1.exe "/tmp/Gau-3192.inp" -scrdir="/tmp/"
 Entering Link 1 = /data2/g16/g16/l1.exe PID=      3193.
  
 Copyright (c) 1988-2017, Gaussian, Inc.  All Rights Reserved.
  
 This is part of the Gaussian(R) 16 program.  It is based on
 the Gaussian(R) 09 system (copyright 2009, Gaussian, Inc.),
 the Gaussian(R) 03 system (copyright 2003, Gaussian, Inc.),
 the Gaussian(R) 98 system (copyright 1998, Gaussian, Inc.),
 the Gaussian(R) 94 system (copyright 1995, Gaussian, Inc.),
 the Gaussian 92(TM) system (copyright 1992, Gaussian, Inc.),
 the Gaussian 90(TM) system (copyright 1990, Gaussian, Inc.),
 the Gaussian 88(TM) system (copyright 1988, Gaussian, Inc.),
 the Gaussian 86(TM) system (copyright 1986, Carnegie Mellon
 University), and the Gaussian 82(TM) system (copyright 1983,
 Carnegie Mellon University). Gaussian is a federally registered
 trademark of Gaussian, Inc.
  
 This software contains proprietary and confidential information,
 including trade secrets, belonging to Gaussian, Inc.
  
 This software is provided under written license and may be
 used, copied, transmitted, or stored only in accord with that
 written license.
  
 The following legend is applicable only to US Government
 contracts under FAR:
  
                    RESTRICTED RIGHTS LEGEND
  
 Use, reproduction and disclosure by the US Government is
 subject to restrictions as set forth in subparagraphs (a)
 and (c) of the Commercial Computer Software - Restricted
 Rights clause in FAR 52.227-19.
  
 Gaussian, Inc.
 340 Quinnipiac St., Bldg. 40, Wallingford CT 06492
  
  
 ---------------------------------------------------------------
 Warning -- This program may not be used in any manner that
 competes with the business of Gaussian, Inc. or will provide
 assistance to any competitor of Gaussian, Inc.  The licensee
 of this program is prohibited from giving any competitor of
 Gaussian, Inc. access to this program.  By using this program,
 the user acknowledges that Gaussian, Inc. is engaged in the
 business of creating and licensing software in the field of
 computational chemistry and represents and warrants to the
 licensee that it is not a competitor of Gaussian, Inc. and that
 it will not use this program in any manner prohibited above.
 ---------------------------------------------------------------
  

 Cite this work as:
 Gaussian 16, Revision B.01,
 M. J. Frisch, G. W. Trucks, H. B. Schlegel, G. E. Scuseria, 
 M. A. Robb, J. R. Cheeseman, G. Scalmani, V. Barone, 
 G. A. Petersson, H. Nakatsuji, X. Li, M. Caricato, A. V. Marenich, 
 J. Bloino, B. G. Janesko, R. Gomperts, B. Mennucci, H. P. Hratchian, 
 J. V. Ortiz, A. F. Izmaylov, J. L. Sonnenberg, D. Williams-Young, 
 F. Ding, F. Lipparini, F. Egidi, J. Goings, B. Peng, A. Petrone, 
 T. Henderson, D. Ranasinghe, V. G. Zakrzewski, J. Gao, N. Rega, 
 G. Zheng, W. Liang, M. Hada, M. Ehara, K. Toyota, R. Fukuda, 
 J. Hasegawa, M. Ishida, T. Nakajima, Y. Honda, O. Kitao, H. Nakai, 
 T. Vreven, K. Throssell, J. A. Montgomery, Jr., J. E. Peralta, 
 F. Ogliaro, M. J. Bearpark, J. J. Heyd, E. N. Brothers, K. N. Kudin, 
 V. N. Staroverov, T. A. Keith, R. Kobayashi, J. Normand, 
 K. Raghavachari, A. P. Rendell, J. C. Burant, S. S. Iyengar, 
 J. Tomasi, M. Cossi, J. M. Millam, M. Klene, C. Adamo, R. Cammi, 
 J. W. Ochterski, R. L. Martin, K. Morokuma, O. Farkas, 
 J. B. Foresman, and D. J. Fox, Gaussian, Inc., Wallingford CT, 2016.
 
 ******************************************
 Gaussian 16:  AM64L-G16RevB.01 20-Dec-2017
                12-Jun-2019 
 ******************************************
 %chk=MTN_PBE0_0.10.chk
 %mem=60GB
 %nprocshared=12
 Will use up to   12 processors via shared memory.
 -----------------
 #p gen 6d pbe1pbe
 -----------------
 1/38=1,172=1/1;
 2/12=2,17=6,18=5,40=1/2;
 3/5=7,8=2,11=2,25=1,30=1,74=-13/1,2,3;
 4//1;
 5/5=2,38=5/2;
 6/7=2,8=2,9=2,10=2,28=1/1;
 99/5=1,9=1/99;
 Leave Link    1 at Wed Jun 12 15:23:11 2019, MaxMem=  8053063680 cpu:               0.0 elap:               0.0
 (Enter /data2/g16/g16/l101.exe)
 ------------------
 start preoptimized
 ------------------
 Symbolic Z-matrix:
 Charge =  0 Multiplicity = 2
 O                    -3.69498   0.17825   0.9967 
 N                    -2.63293   0.04207   0.33222 
 C                    -2.16783  -1.26783  -0.16723 
 C                    -0.86708  -0.86079  -0.79194 
 C                    -0.5988    0.44197  -0.65119 
 C                     0.60845   1.12208  -1.19569 
 S                     1.94587   1.44816   0.03329 
 C                    -1.69911   1.16543   0.09804 
 C                    -1.26934   1.75111   1.44531 
 C                    -2.3967    2.23325  -0.75061 
 C                    -3.1693   -1.82274  -1.18268 
 C                    -1.98944  -2.23726   1.00493 
 H                    -0.21643  -1.57367  -1.29221 
 H                     1.06509   0.53595  -1.99634 
 H                     0.38505   2.1224   -1.58337 
 H                    -0.72482   1.01274   2.03992 
 H                    -0.62498   2.62527   1.30476 
 H                    -2.16463   2.05939   1.99432 
 H                    -3.30299   2.56574  -0.23365 
 H                    -1.74789   3.10393  -0.89787 
 H                    -2.6804    1.83447  -1.72959 
 H                    -3.28389  -1.14176  -2.03276 
 H                    -2.83178  -2.79613  -1.55678 
 H                    -4.14437  -1.94985  -0.70224 
 H                    -2.94655  -2.35881   1.52217 
 H                    -1.65638  -3.21521   0.64077 
 H                    -1.24721  -1.86165   1.7146 
 S                     2.75512  -0.53119   0.10658 
 O                     2.32963  -1.20949   1.34942 
 O                     2.50084  -1.17276  -1.20726 
 C                     4.51009  -0.17958   0.24055 
 H                     4.66695   0.43422   1.13049 
 H                     4.99201  -1.15399   0.35331 
 H                     4.8304    0.32711  -0.6697 
 
 ITRead=  0  0  0  0  0  0  0  0  0  0  0  0  0  0  0  0  0  0  0  0
 ITRead=  0  0  0  0  0  0  0  0  0  0  0  0  0  0
 MicOpt= -1 -1 -1 -1 -1 -1 -1 -1 -1 -1 -1 -1 -1 -1 -1 -1 -1 -1 -1 -1
 MicOpt= -1 -1 -1 -1 -1 -1 -1 -1 -1 -1 -1 -1 -1 -1
 NAtoms=     34 NQM=       34 NQMF=       0 NMMI=      0 NMMIF=      0
                NMic=       0 NMicF=      0.
                    Isotopes and Nuclear Properties:
 (Nuclear quadrupole moments (NQMom) in fm**2, nuclear magnetic moments (NMagM)
  in nuclear magnetons)

  Atom         1           2           3           4           5           6           7           8           9          10
 IAtWgt=          16          14          12          12          12          12          32          12          12          12
 AtmWgt=  15.9949146  14.0030740  12.0000000  12.0000000  12.0000000  12.0000000  31.9720718  12.0000000  12.0000000  12.0000000
 NucSpn=           0           2           0           0           0           0           0           0           0           0
 AtZEff=   0.0000000   0.0000000   0.0000000   0.0000000   0.0000000   0.0000000   0.0000000   0.0000000   0.0000000   0.0000000
 NQMom=    0.0000000   2.0440000   0.0000000   0.0000000   0.0000000   0.0000000   0.0000000   0.0000000   0.0000000   0.0000000
 NMagM=    0.0000000   0.4037610   0.0000000   0.0000000   0.0000000   0.0000000   0.0000000   0.0000000   0.0000000   0.0000000
 AtZNuc=   8.0000000   7.0000000   6.0000000   6.0000000   6.0000000   6.0000000  16.0000000   6.0000000   6.0000000   6.0000000

  Atom        11          12          13          14          15          16          17          18          19          20
 IAtWgt=          12          12           1           1           1           1           1           1           1           1
 AtmWgt=  12.0000000  12.0000000   1.0078250   1.0078250   1.0078250   1.0078250   1.0078250   1.0078250   1.0078250   1.0078250
 NucSpn=           0           0           1           1           1           1           1           1           1           1
 AtZEff=   0.0000000   0.0000000   0.0000000   0.0000000   0.0000000   0.0000000   0.0000000   0.0000000   0.0000000   0.0000000
 NQMom=    0.0000000   0.0000000   0.0000000   0.0000000   0.0000000   0.0000000   0.0000000   0.0000000   0.0000000   0.0000000
 NMagM=    0.0000000   0.0000000   2.7928460   2.7928460   2.7928460   2.7928460   2.7928460   2.7928460   2.7928460   2.7928460
 AtZNuc=   6.0000000   6.0000000   1.0000000   1.0000000   1.0000000   1.0000000   1.0000000   1.0000000   1.0000000   1.0000000

  Atom        21          22          23          24          25          26          27          28          29          30
 IAtWgt=           1           1           1           1           1           1           1          32          16          16
 AtmWgt=   1.0078250   1.0078250   1.0078250   1.0078250   1.0078250   1.0078250   1.0078250  31.9720718  15.9949146  15.9949146
 NucSpn=           1           1           1           1           1           1           1           0           0           0
 AtZEff=   0.0000000   0.0000000   0.0000000   0.0000000   0.0000000   0.0000000   0.0000000   0.0000000   0.0000000   0.0000000
 NQMom=    0.0000000   0.0000000   0.0000000   0.0000000   0.0000000   0.0000000   0.0000000   0.0000000   0.0000000   0.0000000
 NMagM=    2.7928460   2.7928460   2.7928460   2.7928460   2.7928460   2.7928460   2.7928460   0.0000000   0.0000000   0.0000000
 AtZNuc=   1.0000000   1.0000000   1.0000000   1.0000000   1.0000000   1.0000000   1.0000000  16.0000000   8.0000000   8.0000000

  Atom        31          32          33          34
 IAtWgt=          12           1           1           1
 AtmWgt=  12.0000000   1.0078250   1.0078250   1.0078250
 NucSpn=           0           1           1           1
 AtZEff=   0.0000000   0.0000000   0.0000000   0.0000000
 NQMom=    0.0000000   0.0000000   0.0000000   0.0000000
 NMagM=    0.0000000   2.7928460   2.7928460   2.7928460
 AtZNuc=   6.0000000   1.0000000   1.0000000   1.0000000
 Leave Link  101 at Wed Jun 12 15:23:11 2019, MaxMem=  8053063680 cpu:               0.0 elap:               0.1
 (Enter /data2/g16/g16/l202.exe)
                          Input orientation:                          
 ---------------------------------------------------------------------
 Center     Atomic      Atomic             Coordinates (Angstroms)
 Number     Number       Type             X           Y           Z
 ---------------------------------------------------------------------
      1          8           0       -3.694982    0.178249    0.996701
      2          7           0       -2.632931    0.042069    0.332221
      3          6           0       -2.167833   -1.267829   -0.167232
      4          6           0       -0.867083   -0.860792   -0.791939
      5          6           0       -0.598804    0.441974   -0.651188
      6          6           0        0.608445    1.122076   -1.195688
      7         16           0        1.945867    1.448161    0.033285
      8          6           0       -1.699106    1.165435    0.098041
      9          6           0       -1.269336    1.751110    1.445311
     10          6           0       -2.396699    2.233254   -0.750614
     11          6           0       -3.169301   -1.822744   -1.182680
     12          6           0       -1.989442   -2.237264    1.004931
     13          1           0       -0.216433   -1.573674   -1.292213
     14          1           0        1.065089    0.535949   -1.996342
     15          1           0        0.385048    2.122395   -1.583368
     16          1           0       -0.724815    1.012740    2.039919
     17          1           0       -0.624983    2.625265    1.304761
     18          1           0       -2.164628    2.059391    1.994322
     19          1           0       -3.302992    2.565735   -0.233646
     20          1           0       -1.747885    3.103930   -0.897869
     21          1           0       -2.680398    1.834468   -1.729586
     22          1           0       -3.283885   -1.141758   -2.032764
     23          1           0       -2.831784   -2.796133   -1.556776
     24          1           0       -4.144369   -1.949848   -0.702238
     25          1           0       -2.946551   -2.358814    1.522170
     26          1           0       -1.656377   -3.215213    0.640768
     27          1           0       -1.247209   -1.861650    1.714599
     28         16           0        2.755123   -0.531188    0.106576
     29          8           0        2.329632   -1.209490    1.349424
     30          8           0        2.500839   -1.172762   -1.207259
     31          6           0        4.510088   -0.179580    0.240546
     32          1           0        4.666952    0.434218    1.130487
     33          1           0        4.992013   -1.153987    0.353306
     34          1           0        4.830398    0.327114   -0.669695
 ---------------------------------------------------------------------
                    Distance matrix (angstroms):
                    1          2          3          4          5
     1  O    0.000000
     2  N    1.260171   0.000000
     3  C    2.403761   1.477025   0.000000
     4  C    3.503691   2.279718   1.499296   0.000000
     5  C    3.517301   2.294491   2.370547   1.337529   0.000000
     6  C    4.921063   3.742651   3.804877   2.504388   1.488781
     7  S    5.861742   4.799151   4.933491   3.731614   2.820685
     8  C    2.401176   1.479466   2.492157   2.364302   1.515059
     9  C    2.925560   2.453402   3.538585   3.462532   2.561007
    10  C    2.993609   2.455530   3.556726   3.451746   2.539881
    11  C    3.004998   2.461736   1.530361   2.525517   3.466827
    12  C    2.956964   2.462108   1.531533   2.526481   3.443098
    13  H    4.517595   3.329996   2.273122   1.087116   2.149409
    14  H    5.634229   4.397894   4.129291   2.671097   2.141684
    15  H    5.204143   4.135872   4.473954   3.330705   2.158874
    16  H    3.256773   2.738493   3.486375   3.398497   2.753854
    17  H    3.937979   3.413296   4.438843   4.075212   2.931413
    18  H    2.622199   2.655461   3.967710   4.239616   3.473696
    19  H    2.714314   2.671718   3.998651   4.241041   3.463717
    20  H    3.992517   3.416346   4.452243   4.062764   2.909854
    21  H    3.347399   2.732397   3.511114   3.381083   2.726722
    22  H    3.330027   2.723663   2.177539   2.731212   3.409783
    23  H    4.014013   3.415149   2.169649   2.861917   4.036289
    24  H    2.759917   2.705972   2.158258   3.454662   4.277201
    25  H    2.696842   2.697883   2.156555   3.453022   4.252036
    26  H    3.974693   3.414490   2.169506   2.866868   4.020277
    27  H    3.266215   2.730447   2.177489   2.725609   3.365124
    28  S    6.549769   5.423160   4.985289   3.746511   3.573524
    29  O    6.192431   5.218058   4.746666   3.863420   3.912227
    30  O    6.713484   5.495581   4.784056   3.407743   3.538979
    31  C    8.247605   7.147045   6.778289   5.517612   5.223246
    32  H    8.366921   7.353863   7.162075   5.999860   5.559012
    33  H    8.812076   7.718210   7.179646   5.977170   5.900283
    34  H    8.687988   7.535673   7.195245   5.821285   5.430448
                    6          7          8          9         10
     6  C    0.000000
     7  S    1.845374   0.000000
     8  C    2.645828   3.656495   0.000000
     9  C    3.301003   3.524645   1.530638   0.000000
    10  C    3.234764   4.482047   1.532021   2.515054   0.000000
    11  C    4.789937   6.192119   3.568043   4.825830   4.151471
    12  C    4.782981   5.478422   3.533427   4.076716   4.820096
    13  H    2.820782   3.945120   3.410842   4.433602   4.420361
    14  H    1.092298   2.393175   3.524694   4.332566   4.051748
    15  H    1.095829   2.346128   2.843696   3.470985   2.905836
    16  H    3.501241   3.368785   2.177946   1.093276   3.474468
    17  H    3.167517   3.100241   2.177388   1.095031   2.741754
    18  H    4.329510   4.595154   2.147498   1.094531   2.760210
    19  H    4.278904   5.373150   2.154833   2.760121   1.095065
    20  H    3.093337   4.153604   2.179903   2.747658   1.095774
    21  H    3.407204   4.965811   2.179624   3.475344   1.094487
    22  H    4.579943   6.190844   3.517811   4.952181   3.717757
    23  H    5.226655   6.585459   4.440203   5.668438   5.112136
    24  H    5.680621   7.012734   4.040389   5.155082   4.533766
    25  H    5.669334   6.375389   4.000574   4.439643   5.153152
    26  H    5.226286   5.923872   4.414347   5.045934   5.671844
    27  H    4.562438   4.896672   3.461317   3.622850   4.915978
    28  S    3.006227   2.139647   4.766420   4.816364   5.909161
    29  O    3.856978   2.990419   4.841173   4.661214   6.212958
    30  O    2.974487   2.952318   4.981015   5.458880   5.982921
    31  C    4.356592   3.044294   6.354798   6.211342   7.382945
    32  H    4.728183   3.104229   6.490556   6.088746   7.527964
    33  H    5.176438   4.019029   7.086321   6.988316   8.202750
    34  H    4.328224   3.173554   6.627716   6.611185   7.474681
                   11         12         13         14         15
    11  C    0.000000
    12  C    2.519829   0.000000
    13  H    2.965377   2.976707   0.000000
    14  H    4.914828   5.101814   2.566828   0.000000
    15  H    5.325230   5.598582   3.755992   1.774772   0.000000
    16  H    4.939699   3.637720   4.248658   4.441001   3.948587
    17  H    5.696113   5.059233   4.954016   4.256626   3.100698
    18  H    5.116022   4.412576   5.272185   5.355123   4.393709
    19  H    4.491913   5.131110   5.270874   5.129060   3.952207
    20  H    5.135529   5.675152   4.937695   3.964088   2.445961
    21  H    3.730058   4.953181   4.228221   3.973158   3.082408
    22  H    1.095223   3.478981   3.185001   4.661502   4.931300
    23  H    1.096062   2.753946   2.899045   5.146028   5.877128
    24  H    1.094412   2.764190   3.989769   5.915433   6.154281
    25  H    2.766442   1.094700   3.998842   6.070654   6.389456
    26  H    2.748249   1.095414   2.916248   5.332161   6.132231
    27  H    3.477093   1.093446   3.191606   4.986611   5.423418
    28  S    6.199121   5.121390   3.445799   2.901252   3.938866
    29  O    6.084891   4.453021   3.686912   3.979922   4.846043
    30  O    5.707326   5.117575   2.748002   2.367218   3.933966
    31  C    7.981139   6.860192   5.160702   4.169373   5.063764
    32  H    8.476525   7.173574   5.809351   4.770831   5.343187
    33  H    8.331479   7.094985   5.478301   4.878264   5.975744
    34  H    8.299411   7.476003   5.428722   3.997644   4.880468
                   16         17         18         19         20
    16  H    0.000000
    17  H    1.775010   0.000000
    18  H    1.780623   1.779386   0.000000
    19  H    3.771987   3.089008   2.552665   0.000000
    20  H    3.748379   2.518255   3.103144   1.774600   0.000000
    21  H    4.325357   3.749314   3.766178   1.777698   1.781254
    22  H    5.270431   5.692038   5.264742   4.121007   4.655443
    23  H    5.646507   6.515360   6.052397   5.542774   6.034877
    24  H    5.290529   6.111120   5.221571   4.617140   5.596613
    25  H    4.070817   5.502544   4.511637   5.240336   6.093846
    26  H    4.549837   5.967901   5.469175   6.074150   6.504410
    27  H    2.939532   4.548356   4.036640   5.255820   5.633174
    28  S    4.269836   4.777443   5.871851   6.812301   5.873676
    29  O    3.839887   4.841187   5.594627   6.963109   6.346815
    30  O    5.072024   5.523225   6.516404   6.971997   6.036346
    31  C    5.662471   5.947156   7.255381   8.294928   7.158188
    32  H    5.498446   5.730239   7.075160   8.362071   7.238213
    33  H    6.342042   6.836568   8.014752   9.109772   8.069791
    34  H    6.218720   6.240285   7.682979   8.447106   7.143989
                   21         22         23         24         25
    21  H    0.000000
    22  H    3.051890   0.000000
    23  H    4.636297   1.779864   0.000000
    24  H    4.185654   1.778691   1.780256   0.000000
    25  H    5.313038   3.772609   3.111965   2.559299   0.000000
    26  H    5.671550   3.754434   2.527135   3.097566   1.781807
    27  H    5.251450   4.325393   3.753136   3.773913   1.781001
    28  S    6.205861   6.435774   6.253818   7.090117   6.152496
    29  O    6.621660   6.554034   6.132181   6.831554   5.402675
    30  O    6.013441   5.843411   5.585191   6.709523   6.207299
    31  C    7.722752   8.175557   7.998737   8.883823   7.873569
    32  H    8.007763   8.700900   8.595789   9.310318   8.119105
    33  H    8.493244   8.613012   8.219298   9.231524   8.114102
    34  H    7.733534   8.358058   8.321696   9.259161   8.514659
                   26         27         28         29         30
    26  H    0.000000
    27  H    1.775574   0.000000
    28  S    5.191405   4.513815   0.000000
    29  O    4.518118   3.654101   1.478448   0.000000
    30  O    4.986908   4.802050   1.484062   2.562672   0.000000
    31  C    6.884805   6.176460   1.794848   2.654188   2.668264
    32  H    7.317285   6.370989   2.373919   2.865794   3.569242
    33  H    6.966518   6.425091   2.335044   2.843168   2.939671
    34  H    7.506240   6.885699   2.376141   3.562559   2.822313
                   31         32         33         34
    31  C    0.000000
    32  H    1.092405   0.000000
    33  H    1.092902   1.797796   0.000000
    34  H    1.089897   1.810757   1.807294   0.000000
 Stoichiometry    C10H18NO3S2(2)
 Framework group  C1[X(C10H18NO3S2)]
 Deg. of freedom    96
 Full point group                 C1      NOp   1
 Largest Abelian subgroup         C1      NOp   1
 Largest concise Abelian subgroup C1      NOp   1
                         Standard orientation:                         
 ---------------------------------------------------------------------
 Center     Atomic      Atomic             Coordinates (Angstroms)
 Number     Number       Type             X           Y           Z
 ---------------------------------------------------------------------
      1          8           0       -3.695838    0.181276    0.993219
      2          7           0       -2.633240    0.044412    0.329755
      3          6           0       -2.168789   -1.265708   -0.169720
      4          6           0       -0.867056   -0.859580   -0.792968
      5          6           0       -0.597776    0.442898   -0.651461
      6          6           0        0.610616    1.122143   -1.194494
      7         16           0        1.947088    1.446596    0.035943
      8          6           0       -1.698195    1.167045    0.096933
      9          6           0       -1.269265    1.751841    1.444852
     10          6           0       -2.393998    2.235792   -0.752023
     11          6           0       -3.169723   -1.819365   -1.186380
     12          6           0       -1.992427   -2.235735    1.002260
     13          1           0       -0.216529   -1.572846   -1.292854
     14          1           0        1.067550    0.535914   -1.994908
     15          1           0        0.388486    2.122802   -1.582025
     16          1           0       -0.725990    1.012772    2.039731
     17          1           0       -0.624004    2.625482    1.305276
     18          1           0       -2.164837    2.060703    1.993079
     19          1           0       -3.300518    2.568876   -0.235842
     20          1           0       -1.744273    3.105953   -0.898302
     21          1           0       -2.677063    1.837620   -1.731429
     22          1           0       -3.282856   -1.137962   -2.036324
     23          1           0       -2.832685   -2.792910   -1.560501
     24          1           0       -4.145385   -1.945792   -0.706965
     25          1           0       -2.950161   -2.356638    1.518492
     26          1           0       -1.659854   -3.213841    0.638066
     27          1           0       -1.250578   -1.861037    1.712813
     28         16           0        2.754533   -0.533489    0.109308
     29          8           0        2.327199   -1.211881    1.351474
     30          8           0        2.501007   -1.174350   -1.205022
     31          6           0        4.509671   -0.183472    0.245172
     32          1           0        4.666179    0.429857    1.135499
     33          1           0        4.990627   -1.158343    0.358052
     34          1           0        4.831339    0.323280   -0.664558
 ---------------------------------------------------------------------
 Rotational constants (GHZ):           0.7740492           0.2774339           0.2432718
 Leave Link  202 at Wed Jun 12 15:23:11 2019, MaxMem=  8053063680 cpu:               0.0 elap:               0.1
 (Enter /data2/g16/g16/l301.exe)
 General basis read from cards:  (6D, 7F)
 Centers:      13     14     15     16     17     18     19     20     21     22
 Centers:      23     24     25     26     27     32     33     34
 6-31G
 S 1 1.00 0.000000000000
     Exponent=  4.0000000000D-01 Coefficients=  1.0000000000D+00
 P 1 1.00 0.000000000000
     Exponent=  7.5000000000D-01 Coefficients=  1.0000000000D+00
 ****
 Centers:       3      4      5      6      8      9     10     11     12     31
 6-31G
 S 1 1.00 0.000000000000
     Exponent=  8.7000000000D+00 Coefficients=  1.0000000000D+00
 P 1 1.00 0.000000000000
     Exponent=  5.0000000000D-02 Coefficients=  1.0000000000D+00
 D 1 1.00
     Exponent=  8.2000000000D-01 Coefficients=  1.0000000000D+00
 ****
 Centers:       2
 6-31G
 S 1 1.00 0.000000000000
     Exponent=  1.3700000000D+01 Coefficients=  1.0000000000D+00
 P 1 1.00 0.000000000000
     Exponent=  5.3000000000D-02 Coefficients=  1.0000000000D+00
 D 1 1.00 0.000000000000
     Exponent=  1.0150000000D+00 Coefficients=  1.0000000000D+00
 ****
 Centers:       1     29     30
 6-31G
 S 1 1.00
     Exponent=  1.6000000000D+01 Coefficients=  1.0000000000D+00
 P 1 1.00 0.000000000000
     Exponent=  6.5000000000D-02 Coefficients=  1.0000000000D+00
 D 1 1.00 0.000000000000
     Exponent=  1.1900000000D+00 Coefficients=  1.0000000000D+00
 D 1 1.00 0.000000000000
     Exponent=  1.8000000000D-01 Coefficients=  1.0000000000D+00
 ****
 Centers:       7     28
 6-31G
 S 1 1.00 0.000000000000
     Exponent=  7.5000000000D+00 Coefficients=  1.0000000000D+00
 P 1 1.00 0.000000000000
     Exponent=  4.1000000000D-02 Coefficients=  1.0000000000D+00
 D 1 1.00 0.000000000000
     Exponent=  4.7900000000D-01 Coefficients=  1.0000000000D+00
 ****
 Ernie: Thresh=  0.10000D-02 Tol=  0.10000D-05 Strict=F.
 There are   438 symmetry adapted cartesian basis functions of A   symmetry.
 There are   438 symmetry adapted basis functions of A   symmetry.
   438 basis functions,   722 primitive gaussians,   438 cartesian basis functions
    71 alpha electrons       70 beta electrons
       nuclear repulsion energy      1521.2430170721 Hartrees.
 IExCor= 1009 DFT=T Ex+Corr=PBE1PBE ExCW=0 ScaHFX=  0.250000
 ScaDFX=  0.750000  0.750000  1.000000  1.000000 ScalE2=  1.000000  1.000000
 IRadAn=      5 IRanWt=     -1 IRanGd=            0 ICorTp=0 IEmpDi=  4
 NAtoms=   34 NActive=   34 NUniq=   34 SFac= 1.00D+00 NAtFMM=   60 NAOKFM=F Big=F
 Integral buffers will be    131072 words long.
 Raffenetti 2 integral format.
 Two-electron integral symmetry is turned on.
 Leave Link  301 at Wed Jun 12 15:23:11 2019, MaxMem=  8053063680 cpu:               0.0 elap:               0.2
 (Enter /data2/g16/g16/l302.exe)
 NPDir=0 NMtPBC=     1 NCelOv=     1 NCel=       1 NClECP=     1 NCelD=      1
         NCelK=      1 NCelE2=     1 NClLst=     1 CellRange=     0.0.
 One-electron integrals computed using PRISM.
 One-electron integral symmetry used in STVInt
 NBasis=   438 RedAO= T EigKep=  6.61D-05  NBF=   438
 NBsUse=   438 1.00D-06 EigRej= -1.00D+00 NBFU=   438
 Precomputing XC quadrature grid using
 IXCGrd= 4 IRadAn=           5 IRanWt=          -1 IRanGd=           0 AccXCQ= 0.00D+00.
 Generated NRdTot=       0 NPtTot=           0 NUsed=           0 NTot=          32
 NSgBfM=   433   433   433   433   433 MxSgAt=    34 MxSgA2=    34.
 Leave Link  302 at Wed Jun 12 15:23:12 2019, MaxMem=  8053063680 cpu:               0.0 elap:               0.5
 (Enter /data2/g16/g16/l303.exe)
 DipDrv:  MaxL=1.
 Leave Link  303 at Wed Jun 12 15:23:12 2019, MaxMem=  8053063680 cpu:               0.0 elap:               0.1
 (Enter /data2/g16/g16/l401.exe)
 ExpMin= 4.10D-02 ExpMax= 2.19D+04 ExpMxC= 3.30D+03 IAcc=3 IRadAn=         5 AccDes= 0.00D+00
 Harris functional with IExCor= 1009 and IRadAn=       5 diagonalized for initial guess.
 HarFok:  IExCor= 1009 AccDes= 0.00D+00 IRadAn=         5 IDoV= 1 UseB2=F ITyADJ=14
 ICtDFT=  3500011 ScaDFX=  1.000000  1.000000  1.000000  1.000000
 FoFCou: FMM=F IPFlag=           0 FMFlag=      100000 FMFlg1=           0
         NFxFlg=           0 DoJE=T BraDBF=F KetDBF=T FulRan=T
         wScrn=  0.000000 ICntrl=       500 IOpCl=  0 I1Cent=   200000004 NGrid=           0
         NMat0=    1 NMatS0=      1 NMatT0=    0 NMatD0=    1 NMtDS0=    0 NMtDT0=    0
 Petite list used in FoFCou.
 Harris En= -1467.69903204014    
 JPrj=0 DoOrth=F DoCkMO=F.
 Initial guess <Sx>= 0.0000 <Sy>= 0.0000 <Sz>= 0.5000 <S**2>= 0.7500 S= 0.5000
 Leave Link  401 at Wed Jun 12 15:23:14 2019, MaxMem=  8053063680 cpu:               0.0 elap:               1.6
 (Enter /data2/g16/g16/l502.exe)
 Integral symmetry usage will be decided dynamically.
 UHF open shell SCF:
 Using DIIS extrapolation, IDIIS=  1040.
 NGot=  8053063680 LenX=  8052670277 LenY=  8052477992
 Requested convergence on RMS density matrix=1.00D-08 within 128 cycles.
 Requested convergence on MAX density matrix=1.00D-06.
 Requested convergence on             energy=1.00D-06.
 No special actions if energy rises.
 Fock matrices will be formed incrementally for  20 cycles.

 Cycle   1  Pass 1  IDiag  1:
 FoFJK:  IHMeth= 1 ICntrl=       0 DoSepK=F KAlg= 0 I1Cent=           0 FoldK=F
 IRaf= 840000000 NMat=       1 IRICut=       1 DoRegI=T DoRafI=F ISym2E= 0 IDoP0=0 IntGTp=1.
 FoFCou: FMM=F IPFlag=           0 FMFlag=      100000 FMFlg1=           0
         NFxFlg=           0 DoJE=F BraDBF=F KetDBF=F FulRan=T
         wScrn=  0.000000 ICntrl=         0 IOpCl=  1 I1Cent=           0 NGrid=           0
         NMat0=    1 NMatS0=      1 NMatT0=    0 NMatD0=    1 NMtDS0=    0 NMtDT0=    0
 Symmetry not used in FoFCou.
 E= -1466.93585924710    
 DIIS: error= 2.56D-02 at cycle   1 NSaved=   1.
 NSaved= 1 IEnMin= 1 EnMin= -1466.93585924710     IErMin= 1 ErrMin= 2.56D-02
 ErrMax= 2.56D-02  0.00D+00 EMaxC= 1.00D-01 BMatC= 2.97D+00 BMatP= 2.97D+00
 IDIUse=3 WtCom= 7.44D-01 WtEn= 2.56D-01
 Coeff-Com:  0.100D+01
 Coeff-En:   0.100D+01
 Coeff:      0.100D+01
 Gap=     0.223 Goal=   None    Shift=    0.000
 Gap=     0.367 Goal=   None    Shift=    0.000
 GapD=    0.223 DampG=1.000 DampE=0.500 DampFc=0.5000 IDamp=-1.
 Damping current iteration by 5.00D-01
 RMSDP=4.75D-03 MaxDP=4.12D-01              OVMax= 3.06D-01

 Cycle   2  Pass 1  IDiag  1:
 RMSU=  2.37D-03    CP:  9.92D-01
 E= -1467.06272984799     Delta-E=       -0.126870600885 Rises=F Damp=T
 DIIS: error= 1.05D-02 at cycle   2 NSaved=   2.
 NSaved= 2 IEnMin= 2 EnMin= -1467.06272984799     IErMin= 2 ErrMin= 1.05D-02
 ErrMax= 1.05D-02  0.00D+00 EMaxC= 1.00D-01 BMatC= 5.21D-01 BMatP= 2.97D+00
 IDIUse=3 WtCom= 8.95D-01 WtEn= 1.05D-01
 Coeff-Com:  0.226D+00 0.774D+00
 Coeff-En:   0.395D+00 0.605D+00
 Coeff:      0.243D+00 0.757D+00
 Gap=     0.125 Goal=   None    Shift=    0.000
 Gap=     0.185 Goal=   None    Shift=    0.000
 RMSDP=1.68D-03 MaxDP=1.19D-01 DE=-1.27D-01 OVMax= 2.88D-01

 Cycle   3  Pass 1  IDiag  1:
 RMSU=  1.39D-03    CP:  9.82D-01  6.10D-01
 E= -1467.46647907219     Delta-E=       -0.403749224204 Rises=F Damp=F
 DIIS: error= 9.74D-03 at cycle   3 NSaved=   3.
 NSaved= 3 IEnMin= 3 EnMin= -1467.46647907219     IErMin= 3 ErrMin= 9.74D-03
 ErrMax= 9.74D-03  0.00D+00 EMaxC= 1.00D-01 BMatC= 3.55D-01 BMatP= 5.21D-01
 IDIUse=3 WtCom= 9.03D-01 WtEn= 9.74D-02
 Coeff-Com:  0.530D-01 0.446D+00 0.501D+00
 Coeff-En:   0.000D+00 0.000D+00 0.100D+01
 Coeff:      0.478D-01 0.403D+00 0.549D+00
 Gap=     0.143 Goal=   None    Shift=    0.000
 Gap=     0.223 Goal=   None    Shift=    0.000
 RMSDP=9.50D-04 MaxDP=6.57D-02 DE=-4.04D-01 OVMax= 1.09D-01

 Cycle   4  Pass 1  IDiag  1:
 RMSU=  6.30D-04    CP:  9.87D-01  7.39D-01  5.41D-01
 E= -1467.53783895065     Delta-E=       -0.071359878464 Rises=F Damp=F
 DIIS: error= 2.99D-03 at cycle   4 NSaved=   4.
 NSaved= 4 IEnMin= 4 EnMin= -1467.53783895065     IErMin= 4 ErrMin= 2.99D-03
 ErrMax= 2.99D-03  0.00D+00 EMaxC= 1.00D-01 BMatC= 4.76D-02 BMatP= 3.55D-01
 IDIUse=3 WtCom= 9.70D-01 WtEn= 2.99D-02
 Coeff-Com: -0.114D-01 0.661D-01 0.287D+00 0.659D+00
 Coeff-En:   0.000D+00 0.000D+00 0.111D+00 0.889D+00
 Coeff:     -0.111D-01 0.641D-01 0.282D+00 0.665D+00
 Gap=     0.142 Goal=   None    Shift=    0.000
 Gap=     0.201 Goal=   None    Shift=    0.000
 RMSDP=3.21D-04 MaxDP=1.86D-02 DE=-7.14D-02 OVMax= 3.38D-02

 Cycle   5  Pass 1  IDiag  1:
 RMSU=  2.03D-04    CP:  9.86D-01  7.22D-01  6.56D-01  7.04D-01
 E= -1467.54777914937     Delta-E=       -0.009940198713 Rises=F Damp=F
 DIIS: error= 8.38D-04 at cycle   5 NSaved=   5.
 NSaved= 5 IEnMin= 5 EnMin= -1467.54777914937     IErMin= 5 ErrMin= 8.38D-04
 ErrMax= 8.38D-04  0.00D+00 EMaxC= 1.00D-01 BMatC= 4.06D-03 BMatP= 4.76D-02
 IDIUse=3 WtCom= 9.92D-01 WtEn= 8.38D-03
 Coeff-Com: -0.843D-02 0.147D-01 0.131D+00 0.371D+00 0.492D+00
 Coeff-En:   0.000D+00 0.000D+00 0.000D+00 0.000D+00 0.100D+01
 Coeff:     -0.836D-02 0.146D-01 0.130D+00 0.368D+00 0.496D+00
 Gap=     0.143 Goal=   None    Shift=    0.000
 Gap=     0.204 Goal=   None    Shift=    0.000
 RMSDP=1.09D-04 MaxDP=5.46D-03 DE=-9.94D-03 OVMax= 1.25D-02

 Cycle   6  Pass 1  IDiag  1:
 RMSU=  6.99D-05    CP:  9.85D-01  7.24D-01  6.52D-01  7.59D-01  6.27D-01
 E= -1467.54865559395     Delta-E=       -0.000876444579 Rises=F Damp=F
 DIIS: error= 2.54D-04 at cycle   6 NSaved=   6.
 NSaved= 6 IEnMin= 6 EnMin= -1467.54865559395     IErMin= 6 ErrMin= 2.54D-04
 ErrMax= 2.54D-04  0.00D+00 EMaxC= 1.00D-01 BMatC= 4.06D-04 BMatP= 4.06D-03
 IDIUse=3 WtCom= 9.97D-01 WtEn= 2.54D-03
 Coeff-Com: -0.279D-02 0.100D-02 0.364D-01 0.116D+00 0.271D+00 0.578D+00
 Coeff-En:   0.000D+00 0.000D+00 0.000D+00 0.000D+00 0.416D-01 0.958D+00
 Coeff:     -0.279D-02 0.100D-02 0.363D-01 0.115D+00 0.271D+00 0.579D+00
 Gap=     0.145 Goal=   None    Shift=    0.000
 Gap=     0.205 Goal=   None    Shift=    0.000
 RMSDP=3.59D-05 MaxDP=2.29D-03 DE=-8.76D-04 OVMax= 5.17D-03

 Cycle   7  Pass 1  IDiag  1:
 RMSU=  2.55D-05    CP:  9.85D-01  7.21D-01  6.58D-01  7.61D-01  6.72D-01
                    CP:  7.01D-01
 E= -1467.54874955558     Delta-E=       -0.000093961634 Rises=F Damp=F
 DIIS: error= 1.15D-04 at cycle   7 NSaved=   7.
 NSaved= 7 IEnMin= 7 EnMin= -1467.54874955558     IErMin= 7 ErrMin= 1.15D-04
 ErrMax= 1.15D-04  0.00D+00 EMaxC= 1.00D-01 BMatC= 6.58D-05 BMatP= 4.06D-04
 IDIUse=3 WtCom= 9.99D-01 WtEn= 1.15D-03
 Coeff-Com: -0.248D-04-0.241D-02-0.272D-02-0.246D-03 0.585D-01 0.328D+00
 Coeff-Com:  0.619D+00
 Coeff-En:   0.000D+00 0.000D+00 0.000D+00 0.000D+00 0.000D+00 0.690D-01
 Coeff-En:   0.931D+00
 Coeff:     -0.248D-04-0.241D-02-0.272D-02-0.246D-03 0.585D-01 0.327D+00
 Coeff:      0.620D+00
 Gap=     0.145 Goal=   None    Shift=    0.000
 Gap=     0.205 Goal=   None    Shift=    0.000
 RMSDP=1.50D-05 MaxDP=9.21D-04 DE=-9.40D-05 OVMax= 1.18D-03

 Cycle   8  Pass 1  IDiag  1:
 RMSU=  1.03D-05    CP:  9.85D-01  7.21D-01  6.58D-01  7.61D-01  7.06D-01
                    CP:  7.97D-01  8.07D-01
 E= -1467.54876560227     Delta-E=       -0.000016046692 Rises=F Damp=F
 DIIS: error= 3.18D-05 at cycle   8 NSaved=   8.
 NSaved= 8 IEnMin= 8 EnMin= -1467.54876560227     IErMin= 8 ErrMin= 3.18D-05
 ErrMax= 3.18D-05  0.00D+00 EMaxC= 1.00D-01 BMatC= 4.30D-06 BMatP= 6.58D-05
 IDIUse=1 WtCom= 1.00D+00 WtEn= 0.00D+00
 Coeff-Com:  0.407D-03-0.104D-02-0.531D-02-0.142D-01-0.173D-01 0.584D-01
 Coeff-Com:  0.203D+00 0.776D+00
 Coeff:      0.407D-03-0.104D-02-0.531D-02-0.142D-01-0.173D-01 0.584D-01
 Coeff:      0.203D+00 0.776D+00
 Gap=     0.145 Goal=   None    Shift=    0.000
 Gap=     0.205 Goal=   None    Shift=    0.000
 RMSDP=4.83D-06 MaxDP=5.57D-04 DE=-1.60D-05 OVMax= 1.20D-03

 Cycle   9  Pass 1  IDiag  1:
 RMSU=  3.90D-06    CP:  9.85D-01  7.21D-01  6.57D-01  7.64D-01  7.05D-01
                    CP:  8.26D-01  8.46D-01  9.18D-01
 E= -1467.54876704399     Delta-E=       -0.000001441716 Rises=F Damp=F
 DIIS: error= 2.22D-05 at cycle   9 NSaved=   9.
 NSaved= 9 IEnMin= 9 EnMin= -1467.54876704399     IErMin= 9 ErrMin= 2.22D-05
 ErrMax= 2.22D-05  0.00D+00 EMaxC= 1.00D-01 BMatC= 2.25D-06 BMatP= 4.30D-06
 IDIUse=1 WtCom= 1.00D+00 WtEn= 0.00D+00
 Coeff-Com:  0.292D-03-0.260D-03-0.264D-02-0.861D-02-0.247D-01-0.310D-01
 Coeff-Com: -0.238D-01 0.455D+00 0.635D+00
 Coeff:      0.292D-03-0.260D-03-0.264D-02-0.861D-02-0.247D-01-0.310D-01
 Coeff:     -0.238D-01 0.455D+00 0.635D+00
 Gap=     0.145 Goal=   None    Shift=    0.000
 Gap=     0.205 Goal=   None    Shift=    0.000
 RMSDP=3.34D-06 MaxDP=2.58D-04 DE=-1.44D-06 OVMax= 2.83D-04

 Cycle  10  Pass 1  IDiag  1:
 RMSU=  2.15D-06    CP:  9.85D-01  7.21D-01  6.57D-01  7.63D-01  7.10D-01
                    CP:  8.44D-01  8.88D-01  1.06D+00  9.15D-01
 E= -1467.54876756985     Delta-E=       -0.000000525865 Rises=F Damp=F
 DIIS: error= 8.94D-06 at cycle  10 NSaved=  10.
 NSaved=10 IEnMin=10 EnMin= -1467.54876756985     IErMin=10 ErrMin= 8.94D-06
 ErrMax= 8.94D-06  0.00D+00 EMaxC= 1.00D-01 BMatC= 4.30D-07 BMatP= 2.25D-06
 IDIUse=1 WtCom= 1.00D+00 WtEn= 0.00D+00
 Coeff-Com:  0.833D-04 0.104D-03-0.511D-04-0.120D-02-0.105D-01-0.283D-01
 Coeff-Com: -0.660D-01 0.965D-01 0.362D+00 0.647D+00
 Coeff:      0.833D-04 0.104D-03-0.511D-04-0.120D-02-0.105D-01-0.283D-01
 Coeff:     -0.660D-01 0.965D-01 0.362D+00 0.647D+00
 Gap=     0.145 Goal=   None    Shift=    0.000
 Gap=     0.205 Goal=   None    Shift=    0.000
 RMSDP=1.34D-06 MaxDP=1.32D-04 DE=-5.26D-07 OVMax= 3.06D-04

 Cycle  11  Pass 1  IDiag  1:
 RMSU=  8.32D-07    CP:  9.85D-01  7.21D-01  6.57D-01  7.63D-01  7.10D-01
                    CP:  8.49D-01  8.89D-01  1.14D+00  1.02D+00  8.22D-01
 E= -1467.54876769932     Delta-E=       -0.000000129470 Rises=F Damp=F
 DIIS: error= 6.23D-06 at cycle  11 NSaved=  11.
 NSaved=11 IEnMin=11 EnMin= -1467.54876769932     IErMin=11 ErrMin= 6.23D-06
 ErrMax= 6.23D-06  0.00D+00 EMaxC= 1.00D-01 BMatC= 9.44D-08 BMatP= 4.30D-07
 IDIUse=1 WtCom= 1.00D+00 WtEn= 0.00D+00
 Coeff-Com: -0.368D-05 0.695D-04 0.446D-03 0.929D-03-0.143D-02-0.889D-02
 Coeff-Com: -0.332D-01-0.313D-01 0.503D-01 0.357D+00 0.666D+00
 Coeff:     -0.368D-05 0.695D-04 0.446D-03 0.929D-03-0.143D-02-0.889D-02
 Coeff:     -0.332D-01-0.313D-01 0.503D-01 0.357D+00 0.666D+00
 Gap=     0.145 Goal=   None    Shift=    0.000
 Gap=     0.205 Goal=   None    Shift=    0.000
 RMSDP=6.47D-07 MaxDP=4.55D-05 DE=-1.29D-07 OVMax= 7.97D-05

 Cycle  12  Pass 1  IDiag  1:
 RMSU=  4.18D-07    CP:  9.85D-01  7.21D-01  6.57D-01  7.63D-01  7.10D-01
                    CP:  8.51D-01  8.89D-01  1.15D+00  1.08D+00  9.85D-01
                    CP:  8.44D-01
 E= -1467.54876772302     Delta-E=       -0.000000023696 Rises=F Damp=F
 DIIS: error= 1.94D-06 at cycle  12 NSaved=  12.
 NSaved=12 IEnMin=12 EnMin= -1467.54876772302     IErMin=12 ErrMin= 1.94D-06
 ErrMax= 1.94D-06  0.00D+00 EMaxC= 1.00D-01 BMatC= 1.35D-08 BMatP= 9.44D-08
 IDIUse=1 WtCom= 1.00D+00 WtEn= 0.00D+00
 Coeff-Com: -0.938D-05 0.145D-04 0.243D-03 0.634D-03 0.698D-03-0.746D-04
 Coeff-Com: -0.770D-02-0.289D-01-0.351D-01 0.957D-01 0.346D+00 0.628D+00
 Coeff:     -0.938D-05 0.145D-04 0.243D-03 0.634D-03 0.698D-03-0.746D-04
 Coeff:     -0.770D-02-0.289D-01-0.351D-01 0.957D-01 0.346D+00 0.628D+00
 Gap=     0.145 Goal=   None    Shift=    0.000
 Gap=     0.205 Goal=   None    Shift=    0.000
 RMSDP=2.41D-07 MaxDP=1.37D-05 DE=-2.37D-08 OVMax= 2.27D-05

 Cycle  13  Pass 1  IDiag  1:
 RMSU=  1.68D-07    CP:  9.85D-01  7.21D-01  6.57D-01  7.63D-01  7.10D-01
                    CP:  8.52D-01  8.89D-01  1.15D+00  1.10D+00  1.04D+00
                    CP:  9.28D-01  8.12D-01
 E= -1467.54876772617     Delta-E=       -0.000000003154 Rises=F Damp=F
 DIIS: error= 1.55D-06 at cycle  13 NSaved=  13.
 NSaved=13 IEnMin=13 EnMin= -1467.54876772617     IErMin=13 ErrMin= 1.55D-06
 ErrMax= 1.55D-06  0.00D+00 EMaxC= 1.00D-01 BMatC= 4.55D-09 BMatP= 1.35D-08
 IDIUse=1 WtCom= 1.00D+00 WtEn= 0.00D+00
 Coeff-Com: -0.311D-05-0.104D-04 0.529D-04 0.181D-03 0.817D-03 0.256D-02
 Coeff-Com:  0.361D-02-0.904D-02-0.370D-01-0.245D-01 0.543D-01 0.411D+00
 Coeff-Com:  0.598D+00
 Coeff:     -0.311D-05-0.104D-04 0.529D-04 0.181D-03 0.817D-03 0.256D-02
 Coeff:      0.361D-02-0.904D-02-0.370D-01-0.245D-01 0.543D-01 0.411D+00
 Coeff:      0.598D+00
 Gap=     0.145 Goal=   None    Shift=    0.000
 Gap=     0.205 Goal=   None    Shift=    0.000
 RMSDP=1.10D-07 MaxDP=8.98D-06 DE=-3.15D-09 OVMax= 1.53D-05

 Cycle  14  Pass 1  IDiag  1:
 RMSU=  8.94D-08    CP:  9.85D-01  7.21D-01  6.57D-01  7.63D-01  7.09D-01
                    CP:  8.52D-01  8.89D-01  1.15D+00  1.10D+00  1.05D+00
                    CP:  9.54D-01  8.72D-01  8.50D-01
 E= -1467.54876772724     Delta-E=       -0.000000001069 Rises=F Damp=F
 DIIS: error= 5.24D-07 at cycle  14 NSaved=  14.
 NSaved=14 IEnMin=14 EnMin= -1467.54876772724     IErMin=14 ErrMin= 5.24D-07
 ErrMax= 5.24D-07  0.00D+00 EMaxC= 1.00D-01 BMatC= 1.00D-09 BMatP= 4.55D-09
 IDIUse=1 WtCom= 1.00D+00 WtEn= 0.00D+00
 Coeff-Com:  0.517D-06-0.114D-04-0.262D-04-0.412D-04 0.326D-03 0.160D-02
 Coeff-Com:  0.396D-02 0.162D-02-0.153D-01-0.389D-01-0.596D-01 0.907D-01
 Coeff-Com:  0.380D+00 0.636D+00
 Coeff:      0.517D-06-0.114D-04-0.262D-04-0.412D-04 0.326D-03 0.160D-02
 Coeff:      0.396D-02 0.162D-02-0.153D-01-0.389D-01-0.596D-01 0.907D-01
 Coeff:      0.380D+00 0.636D+00
 Gap=     0.145 Goal=   None    Shift=    0.000
 Gap=     0.205 Goal=   None    Shift=    0.000
 RMSDP=6.77D-08 MaxDP=4.25D-06 DE=-1.07D-09 OVMax= 5.25D-06

 Cycle  15  Pass 1  IDiag  1:
 RMSU=  3.39D-08    CP:  9.85D-01  7.21D-01  6.57D-01  7.63D-01  7.09D-01
                    CP:  8.52D-01  8.88D-01  1.15D+00  1.10D+00  1.06D+00
                    CP:  9.78D-01  9.54D-01  9.60D-01  7.27D-01
 E= -1467.54876772746     Delta-E=       -0.000000000220 Rises=F Damp=F
 DIIS: error= 1.31D-07 at cycle  15 NSaved=  15.
 NSaved=15 IEnMin=15 EnMin= -1467.54876772746     IErMin=15 ErrMin= 1.31D-07
 ErrMax= 1.31D-07  0.00D+00 EMaxC= 1.00D-01 BMatC= 5.95D-11 BMatP= 1.00D-09
 IDIUse=1 WtCom= 1.00D+00 WtEn= 0.00D+00
 Coeff-Com:  0.675D-06-0.206D-05-0.194D-04-0.457D-04-0.771D-05 0.222D-03
 Coeff-Com:  0.868D-03 0.218D-02-0.951D-04-0.919D-02-0.318D-01-0.293D-01
 Coeff-Com:  0.504D-01 0.221D+00 0.796D+00
 Coeff:      0.675D-06-0.206D-05-0.194D-04-0.457D-04-0.771D-05 0.222D-03
 Coeff:      0.868D-03 0.218D-02-0.951D-04-0.919D-02-0.318D-01-0.293D-01
 Coeff:      0.504D-01 0.221D+00 0.796D+00
 Gap=     0.145 Goal=   None    Shift=    0.000
 Gap=     0.205 Goal=   None    Shift=    0.000
 RMSDP=1.99D-08 MaxDP=1.17D-06 DE=-2.20D-10 OVMax= 1.82D-06

 Cycle  16  Pass 1  IDiag  1:
 RMSU=  1.36D-08    CP:  9.85D-01  7.21D-01  6.57D-01  7.63D-01  7.09D-01
                    CP:  8.52D-01  8.88D-01  1.15D+00  1.10D+00  1.06D+00
                    CP:  9.76D-01  9.65D-01  1.00D+00  8.25D-01  8.99D-01
 E= -1467.54876772752     Delta-E=       -0.000000000061 Rises=F Damp=F
 DIIS: error= 4.67D-08 at cycle  16 NSaved=  16.
 NSaved=16 IEnMin=16 EnMin= -1467.54876772752     IErMin=16 ErrMin= 4.67D-08
 ErrMax= 4.67D-08  0.00D+00 EMaxC= 1.00D-01 BMatC= 1.09D-11 BMatP= 5.95D-11
 IDIUse=1 WtCom= 1.00D+00 WtEn= 0.00D+00
 Coeff-Com:  0.649D-07 0.106D-05-0.399D-05-0.109D-04-0.518D-04-0.144D-03
 Coeff-Com: -0.246D-03 0.634D-03 0.212D-02 0.238D-02-0.422D-02-0.247D-01
 Coeff-Com: -0.336D-01-0.137D-01 0.319D+00 0.752D+00
 Coeff:      0.649D-07 0.106D-05-0.399D-05-0.109D-04-0.518D-04-0.144D-03
 Coeff:     -0.246D-03 0.634D-03 0.212D-02 0.238D-02-0.422D-02-0.247D-01
 Coeff:     -0.336D-01-0.137D-01 0.319D+00 0.752D+00
 Gap=     0.145 Goal=   None    Shift=    0.000
 Gap=     0.205 Goal=   None    Shift=    0.000
 RMSDP=8.15D-09 MaxDP=4.16D-07 DE=-6.09D-11 OVMax= 1.03D-06

 SCF Done:  E(UPBE1PBE) =  -1467.54876773     A.U. after   16 cycles
            NFock= 16  Conv=0.81D-08     -V/T= 2.0052
 <Sx>= 0.0000 <Sy>= 0.0000 <Sz>= 0.5000 <S**2>= 0.7550 S= 0.5025
 <L.S>=  0.00000000000    
 KE= 1.459912018379D+03 PE=-6.497900216222D+03 EE= 2.049196413044D+03
 Annihilation of the first spin contaminant:
 S**2 before annihilation     0.7550,   after     0.7500
 Leave Link  502 at Wed Jun 12 15:25:53 2019, MaxMem=  8053063680 cpu:               0.0 elap:             159.6
 (Enter /data2/g16/g16/l601.exe)
 Copying SCF densities to generalized density rwf, IOpCl= 1 IROHF=0.

 **********************************************************************

            Population analysis using the SCF Density.

 **********************************************************************

 Orbital symmetries:
 Alpha Orbitals:
       Occupied  (A) (A) (A) (A) (A) (A) (A) (A) (A) (A) (A) (A)
                 (A) (A) (A) (A) (A) (A) (A) (A) (A) (A) (A) (A)
                 (A) (A) (A) (A) (A) (A) (A) (A) (A) (A) (A) (A)
                 (A) (A) (A) (A) (A) (A) (A) (A) (A) (A) (A) (A)
                 (A) (A) (A) (A) (A) (A) (A) (A) (A) (A) (A) (A)
                 (A) (A) (A) (A) (A) (A) (A) (A) (A) (A) (A)
       Virtual   (A) (A) (A) (A) (A) (A) (A) (A) (A) (A) (A) (A)
                 (A) (A) (A) (A) (A) (A) (A) (A) (A) (A) (A) (A)
                 (A) (A) (A) (A) (A) (A) (A) (A) (A) (A) (A) (A)
                 (A) (A) (A) (A) (A) (A) (A) (A) (A) (A) (A) (A)
                 (A) (A) (A) (A) (A) (A) (A) (A) (A) (A) (A) (A)
                 (A) (A) (A) (A) (A) (A) (A) (A) (A) (A) (A) (A)
                 (A) (A) (A) (A) (A) (A) (A) (A) (A) (A) (A) (A)
                 (A) (A) (A) (A) (A) (A) (A) (A) (A) (A) (A) (A)
                 (A) (A) (A) (A) (A) (A) (A) (A) (A) (A) (A) (A)
                 (A) (A) (A) (A) (A) (A) (A) (A) (A) (A) (A) (A)
                 (A) (A) (A) (A) (A) (A) (A) (A) (A) (A) (A) (A)
                 (A) (A) (A) (A) (A) (A) (A) (A) (A) (A) (A) (A)
                 (A) (A) (A) (A) (A) (A) (A) (A) (A) (A) (A) (A)
                 (A) (A) (A) (A) (A) (A) (A) (A) (A) (A) (A) (A)
                 (A) (A) (A) (A) (A) (A) (A) (A) (A) (A) (A) (A)
                 (A) (A) (A) (A) (A) (A) (A) (A) (A) (A) (A) (A)
                 (A) (A) (A) (A) (A) (A) (A) (A) (A) (A) (A) (A)
                 (A) (A) (A) (A) (A) (A) (A) (A) (A) (A) (A) (A)
                 (A) (A) (A) (A) (A) (A) (A) (A) (A) (A) (A) (A)
                 (A) (A) (A) (A) (A) (A) (A) (A) (A) (A) (A) (A)
                 (A) (A) (A) (A) (A) (A) (A) (A) (A) (A) (A) (A)
                 (A) (A) (A) (A) (A) (A) (A) (A) (A) (A) (A) (A)
                 (A) (A) (A) (A) (A) (A) (A) (A) (A) (A) (A) (A)
                 (A) (A) (A) (A) (A) (A) (A) (A) (A) (A) (A) (A)
                 (A) (A) (A) (A) (A) (A) (A) (A) (A) (A) (A) (A)
                 (A) (A) (A) (A) (A) (A) (A) (A) (A) (A) (A) (A)
                 (A) (A) (A) (A) (A) (A) (A) (A) (A) (A) (A) (A)
                 (A) (A) (A) (A) (A) (A) (A) (A) (A) (A) (A) (A)
                 (A) (A) (A) (A) (A) (A) (A) (A) (A) (A) (A) (A)
                 (A) (A) (A) (A) (A) (A) (A) (A) (A) (A) (A) (A)
                 (A) (A) (A) (A) (A) (A) (A)
 Beta  Orbitals:
       Occupied  (A) (A) (A) (A) (A) (A) (A) (A) (A) (A) (A) (A)
                 (A) (A) (A) (A) (A) (A) (A) (A) (A) (A) (A) (A)
                 (A) (A) (A) (A) (A) (A) (A) (A) (A) (A) (A) (A)
                 (A) (A) (A) (A) (A) (A) (A) (A) (A) (A) (A) (A)
                 (A) (A) (A) (A) (A) (A) (A) (A) (A) (A) (A) (A)
                 (A) (A) (A) (A) (A) (A) (A) (A) (A) (A)
       Virtual   (A) (A) (A) (A) (A) (A) (A) (A) (A) (A) (A) (A)
                 (A) (A) (A) (A) (A) (A) (A) (A) (A) (A) (A) (A)
                 (A) (A) (A) (A) (A) (A) (A) (A) (A) (A) (A) (A)
                 (A) (A) (A) (A) (A) (A) (A) (A) (A) (A) (A) (A)
                 (A) (A) (A) (A) (A) (A) (A) (A) (A) (A) (A) (A)
                 (A) (A) (A) (A) (A) (A) (A) (A) (A) (A) (A) (A)
                 (A) (A) (A) (A) (A) (A) (A) (A) (A) (A) (A) (A)
                 (A) (A) (A) (A) (A) (A) (A) (A) (A) (A) (A) (A)
                 (A) (A) (A) (A) (A) (A) (A) (A) (A) (A) (A) (A)
                 (A) (A) (A) (A) (A) (A) (A) (A) (A) (A) (A) (A)
                 (A) (A) (A) (A) (A) (A) (A) (A) (A) (A) (A) (A)
                 (A) (A) (A) (A) (A) (A) (A) (A) (A) (A) (A) (A)
                 (A) (A) (A) (A) (A) (A) (A) (A) (A) (A) (A) (A)
                 (A) (A) (A) (A) (A) (A) (A) (A) (A) (A) (A) (A)
                 (A) (A) (A) (A) (A) (A) (A) (A) (A) (A) (A) (A)
                 (A) (A) (A) (A) (A) (A) (A) (A) (A) (A) (A) (A)
                 (A) (A) (A) (A) (A) (A) (A) (A) (A) (A) (A) (A)
                 (A) (A) (A) (A) (A) (A) (A) (A) (A) (A) (A) (A)
                 (A) (A) (A) (A) (A) (A) (A) (A) (A) (A) (A) (A)
                 (A) (A) (A) (A) (A) (A) (A) (A) (A) (A) (A) (A)
                 (A) (A) (A) (A) (A) (A) (A) (A) (A) (A) (A) (A)
                 (A) (A) (A) (A) (A) (A) (A) (A) (A) (A) (A) (A)
                 (A) (A) (A) (A) (A) (A) (A) (A) (A) (A) (A) (A)
                 (A) (A) (A) (A) (A) (A) (A) (A) (A) (A) (A) (A)
                 (A) (A) (A) (A) (A) (A) (A) (A) (A) (A) (A) (A)
                 (A) (A) (A) (A) (A) (A) (A) (A) (A) (A) (A) (A)
                 (A) (A) (A) (A) (A) (A) (A) (A) (A) (A) (A) (A)
                 (A) (A) (A) (A) (A) (A) (A) (A) (A) (A) (A) (A)
                 (A) (A) (A) (A) (A) (A) (A) (A) (A) (A) (A) (A)
                 (A) (A) (A) (A) (A) (A) (A) (A) (A) (A) (A) (A)
                 (A) (A) (A) (A) (A) (A) (A) (A)
 The electronic state is 2-A.
 Alpha  occ. eigenvalues --  -89.28806 -89.08195 -19.24742 -19.24231 -19.22573
 Alpha  occ. eigenvalues --  -14.48494 -10.29760 -10.29703 -10.29111 -10.28697
 Alpha  occ. eigenvalues --  -10.26132 -10.24861 -10.23277 -10.22779 -10.22611
 Alpha  occ. eigenvalues --  -10.22342  -8.22124  -8.04438  -6.15846  -6.15803
 Alpha  occ. eigenvalues --   -6.15688  -5.98279  -5.97902  -5.97179  -1.14703
 Alpha  occ. eigenvalues --   -1.13836  -1.04466  -0.93326  -0.85927  -0.84046
 Alpha  occ. eigenvalues --   -0.82252  -0.77242  -0.74902  -0.72100  -0.71242
 Alpha  occ. eigenvalues --   -0.70588  -0.64485  -0.62467  -0.59010  -0.56412
 Alpha  occ. eigenvalues --   -0.53148  -0.51826  -0.51299  -0.50751  -0.50307
 Alpha  occ. eigenvalues --   -0.48518  -0.47427  -0.46364  -0.46184  -0.45160
 Alpha  occ. eigenvalues --   -0.44661  -0.43988  -0.42785  -0.42465  -0.41677
 Alpha  occ. eigenvalues --   -0.40522  -0.40069  -0.39151  -0.38921  -0.36506
 Alpha  occ. eigenvalues --   -0.36377  -0.36170  -0.35750  -0.35656  -0.34558
 Alpha  occ. eigenvalues --   -0.33585  -0.31774  -0.28328  -0.27194  -0.26894
 Alpha  occ. eigenvalues --   -0.19950
 Alpha virt. eigenvalues --   -0.05443  -0.02460   0.00462   0.01067   0.02629
 Alpha virt. eigenvalues --    0.03418   0.03709   0.04573   0.04805   0.04992
 Alpha virt. eigenvalues --    0.05453   0.05812   0.06165   0.06287   0.06855
 Alpha virt. eigenvalues --    0.07840   0.08243   0.08360   0.09031   0.09340
 Alpha virt. eigenvalues --    0.09357   0.09679   0.10336   0.10784   0.10997
 Alpha virt. eigenvalues --    0.11373   0.11846   0.12651   0.13023   0.13691
 Alpha virt. eigenvalues --    0.14034   0.14393   0.14736   0.15061   0.15513
 Alpha virt. eigenvalues --    0.15992   0.16625   0.16746   0.16952   0.17731
 Alpha virt. eigenvalues --    0.18420   0.18722   0.19274   0.19464   0.19658
 Alpha virt. eigenvalues --    0.19967   0.20922   0.21263   0.22004   0.22538
 Alpha virt. eigenvalues --    0.23175   0.23278   0.24069   0.24593   0.25400
 Alpha virt. eigenvalues --    0.26107   0.26322   0.26677   0.27159   0.27725
 Alpha virt. eigenvalues --    0.28097   0.28459   0.29094   0.29259   0.29844
 Alpha virt. eigenvalues --    0.30454   0.30535   0.31476   0.31654   0.31857
 Alpha virt. eigenvalues --    0.32397   0.32957   0.33554   0.34502   0.34995
 Alpha virt. eigenvalues --    0.35624   0.36813   0.37775   0.38097   0.40500
 Alpha virt. eigenvalues --    0.41772   0.42021   0.42398   0.43374   0.44352
 Alpha virt. eigenvalues --    0.46197   0.47124   0.47570   0.48066   0.50251
 Alpha virt. eigenvalues --    0.50735   0.50998   0.51870   0.51935   0.52778
 Alpha virt. eigenvalues --    0.53285   0.53884   0.54433   0.55465   0.56158
 Alpha virt. eigenvalues --    0.57015   0.57883   0.58153   0.59852   0.60443
 Alpha virt. eigenvalues --    0.60848   0.61876   0.62729   0.63130   0.63940
 Alpha virt. eigenvalues --    0.64280   0.64932   0.65425   0.65788   0.66619
 Alpha virt. eigenvalues --    0.67933   0.68062   0.68671   0.69964   0.70947
 Alpha virt. eigenvalues --    0.72113   0.72794   0.73158   0.73664   0.74194
 Alpha virt. eigenvalues --    0.74825   0.75878   0.76491   0.77316   0.78506
 Alpha virt. eigenvalues --    0.79051   0.79875   0.80817   0.81926   0.82114
 Alpha virt. eigenvalues --    0.82649   0.83172   0.83871   0.84852   0.85712
 Alpha virt. eigenvalues --    0.85893   0.87044   0.87990   0.88451   0.88726
 Alpha virt. eigenvalues --    0.89197   0.89829   0.90422   0.91058   0.91384
 Alpha virt. eigenvalues --    0.91698   0.92989   0.94318   0.94909   0.95399
 Alpha virt. eigenvalues --    0.96252   0.97517   0.97950   0.98015   0.99506
 Alpha virt. eigenvalues --    0.99868   1.01846   1.02202   1.03485   1.04474
 Alpha virt. eigenvalues --    1.04758   1.07868   1.08637   1.09186   1.11917
 Alpha virt. eigenvalues --    1.12679   1.14578   1.15135   1.16068   1.17181
 Alpha virt. eigenvalues --    1.18523   1.20380   1.22067   1.22610   1.23634
 Alpha virt. eigenvalues --    1.25679   1.28224   1.29857   1.31240   1.31755
 Alpha virt. eigenvalues --    1.36339   1.37854   1.39538   1.40067   1.41389
 Alpha virt. eigenvalues --    1.44344   1.45332   1.45952   1.48004   1.48981
 Alpha virt. eigenvalues --    1.49239   1.50086   1.51277   1.52911   1.55793
 Alpha virt. eigenvalues --    1.57482   1.59369   1.62606   1.63102   1.63333
 Alpha virt. eigenvalues --    1.65942   1.66095   1.66755   1.68044   1.68418
 Alpha virt. eigenvalues --    1.69039   1.71130   1.72308   1.73197   1.74834
 Alpha virt. eigenvalues --    1.75551   1.76582   1.77589   1.78937   1.79254
 Alpha virt. eigenvalues --    1.79738   1.80547   1.80945   1.81831   1.82622
 Alpha virt. eigenvalues --    1.84088   1.84548   1.85108   1.86026   1.87137
 Alpha virt. eigenvalues --    1.88088   1.89482   1.91157   1.92756   1.94059
 Alpha virt. eigenvalues --    1.95281   1.95884   1.97933   1.98257   1.98952
 Alpha virt. eigenvalues --    1.99496   2.02206   2.03163   2.04304   2.05695
 Alpha virt. eigenvalues --    2.06521   2.07314   2.10280   2.12257   2.13479
 Alpha virt. eigenvalues --    2.14953   2.16266   2.17137   2.24670   2.26163
 Alpha virt. eigenvalues --    2.27430   2.28192   2.31605   2.33028   2.34311
 Alpha virt. eigenvalues --    2.36663   2.38757   2.39416   2.40107   2.41048
 Alpha virt. eigenvalues --    2.43208   2.44803   2.47373   2.48822   2.49687
 Alpha virt. eigenvalues --    2.53814   2.54759   2.54932   2.57900   2.58916
 Alpha virt. eigenvalues --    2.60638   2.63926   2.65320   2.66101   2.67605
 Alpha virt. eigenvalues --    2.70742   2.75447   2.76133   2.77510   2.80420
 Alpha virt. eigenvalues --    2.82489   2.82677   2.83119   2.83272   2.84171
 Alpha virt. eigenvalues --    2.84337   2.85271   2.86495   2.87006   2.87752
 Alpha virt. eigenvalues --    2.88263   2.89701   2.90904   2.93154   2.93768
 Alpha virt. eigenvalues --    2.94506   2.95496   2.96831   2.97957   2.98428
 Alpha virt. eigenvalues --    2.99358   3.02713   3.03730   3.04012   3.06654
 Alpha virt. eigenvalues --    3.08156   3.15688   3.18444   3.19636   3.20890
 Alpha virt. eigenvalues --    3.26181   3.28212   3.29749   3.31197   3.31579
 Alpha virt. eigenvalues --    3.34532   3.35784   3.37260   3.38375   3.41453
 Alpha virt. eigenvalues --    3.42263   3.43149   3.45106   3.48172   3.50165
 Alpha virt. eigenvalues --    3.53738   3.56478   3.59765   3.63943   3.64794
 Alpha virt. eigenvalues --    3.76142   3.95572   4.47235   4.57485   4.62164
 Alpha virt. eigenvalues --    4.64275   4.72420   4.73695   4.74649   4.86604
 Alpha virt. eigenvalues --    4.91363   5.03190   5.44834   5.81749   5.84450
 Alpha virt. eigenvalues --    6.08584  22.21545  22.63348  58.49201  58.49244
 Alpha virt. eigenvalues --   58.50388  58.50658  58.50903  58.55631  58.56119
 Alpha virt. eigenvalues --   58.56310  58.56607  58.56824  95.61926 106.32238
 Alpha virt. eigenvalues --  106.33250 106.39278
  Beta  occ. eigenvalues --  -89.28806 -89.08195 -19.24742 -19.24231 -19.21147
  Beta  occ. eigenvalues --  -14.47299 -10.29762 -10.29703 -10.29180 -10.28765
  Beta  occ. eigenvalues --  -10.26131 -10.24858 -10.23225 -10.22728 -10.22562
  Beta  occ. eigenvalues --  -10.22290  -8.22124  -8.04438  -6.15846  -6.15803
  Beta  occ. eigenvalues --   -6.15688  -5.98279  -5.97901  -5.97179  -1.14703
  Beta  occ. eigenvalues --   -1.11207  -1.04466  -0.92385  -0.85739  -0.83943
  Beta  occ. eigenvalues --   -0.82121  -0.77052  -0.73833  -0.71847  -0.71112
  Beta  occ. eigenvalues --   -0.70124  -0.64432  -0.62339  -0.58635  -0.55902
  Beta  occ. eigenvalues --   -0.53058  -0.51819  -0.51017  -0.50415  -0.48358
  Beta  occ. eigenvalues --   -0.47544  -0.47193  -0.46349  -0.46119  -0.44986
  Beta  occ. eigenvalues --   -0.44298  -0.43835  -0.42515  -0.41651  -0.41202
  Beta  occ. eigenvalues --   -0.40212  -0.40023  -0.38815  -0.37684  -0.36332
  Beta  occ. eigenvalues --   -0.36118  -0.35711  -0.35696  -0.34531  -0.33582
  Beta  occ. eigenvalues --   -0.32836  -0.31770  -0.28246  -0.26728  -0.25985
  Beta virt. eigenvalues --   -0.05444  -0.03618  -0.02416   0.00474   0.01073
  Beta virt. eigenvalues --    0.02652   0.03444   0.03748   0.04613   0.04896
  Beta virt. eigenvalues --    0.05024   0.05479   0.05857   0.06194   0.06313
  Beta virt. eigenvalues --    0.06925   0.07859   0.08294   0.08447   0.09058
  Beta virt. eigenvalues --    0.09384   0.09473   0.09746   0.10382   0.10836
  Beta virt. eigenvalues --    0.11016   0.11428   0.11941   0.12765   0.13112
  Beta virt. eigenvalues --    0.13748   0.14091   0.14436   0.14836   0.15123
  Beta virt. eigenvalues --    0.15824   0.16081   0.16672   0.17026   0.17169
  Beta virt. eigenvalues --    0.17867   0.18464   0.18844   0.19382   0.19629
  Beta virt. eigenvalues --    0.19826   0.20157   0.21051   0.21383   0.22098
  Beta virt. eigenvalues --    0.22684   0.23285   0.23335   0.24203   0.24922
  Beta virt. eigenvalues --    0.25564   0.26228   0.26406   0.26784   0.27238
  Beta virt. eigenvalues --    0.27774   0.28205   0.28619   0.29160   0.29388
  Beta virt. eigenvalues --    0.30273   0.30639   0.30857   0.31602   0.31942
  Beta virt. eigenvalues --    0.32035   0.32711   0.33038   0.33661   0.34574
  Beta virt. eigenvalues --    0.35099   0.35823   0.36847   0.37849   0.38182
  Beta virt. eigenvalues --    0.40534   0.41819   0.42064   0.42858   0.43415
  Beta virt. eigenvalues --    0.44557   0.46254   0.47258   0.47594   0.48113
  Beta virt. eigenvalues --    0.50369   0.50868   0.51146   0.51939   0.52071
  Beta virt. eigenvalues --    0.52822   0.53390   0.54034   0.54543   0.55525
  Beta virt. eigenvalues --    0.56243   0.57097   0.57952   0.58327   0.59961
  Beta virt. eigenvalues --    0.60564   0.60982   0.61911   0.62757   0.63315
  Beta virt. eigenvalues --    0.64050   0.64378   0.65012   0.65575   0.65982
  Beta virt. eigenvalues --    0.66704   0.67988   0.68334   0.68791   0.70194
  Beta virt. eigenvalues --    0.71223   0.72166   0.72892   0.73212   0.73745
  Beta virt. eigenvalues --    0.74409   0.74857   0.76003   0.76550   0.77380
  Beta virt. eigenvalues --    0.78695   0.79137   0.80094   0.80940   0.82115
  Beta virt. eigenvalues --    0.82222   0.82731   0.83239   0.83953   0.84927
  Beta virt. eigenvalues --    0.85773   0.85996   0.87153   0.88018   0.88515
  Beta virt. eigenvalues --    0.88765   0.89234   0.89888   0.90527   0.91119
  Beta virt. eigenvalues --    0.91454   0.91876   0.93178   0.94489   0.95019
  Beta virt. eigenvalues --    0.95449   0.96427   0.97633   0.98101   0.99220
  Beta virt. eigenvalues --    0.99562   1.00067   1.02108   1.02250   1.03591
  Beta virt. eigenvalues --    1.04594   1.04889   1.07918   1.08691   1.09409
  Beta virt. eigenvalues --    1.12274   1.12790   1.14606   1.15183   1.16215
  Beta virt. eigenvalues --    1.17397   1.18849   1.20716   1.22458   1.23426
  Beta virt. eigenvalues --    1.24590   1.26402   1.28507   1.30322   1.31693
  Beta virt. eigenvalues --    1.32114   1.36736   1.38172   1.39604   1.40132
  Beta virt. eigenvalues --    1.41460   1.44372   1.45532   1.46234   1.48242
  Beta virt. eigenvalues --    1.49044   1.49318   1.50128   1.51366   1.52945
  Beta virt. eigenvalues --    1.55971   1.57556   1.59483   1.62626   1.63123
  Beta virt. eigenvalues --    1.63347   1.66232   1.66373   1.67269   1.68261
  Beta virt. eigenvalues --    1.68439   1.69339   1.71203   1.72360   1.73303
  Beta virt. eigenvalues --    1.74911   1.75618   1.76696   1.77636   1.78993
  Beta virt. eigenvalues --    1.79297   1.79811   1.80636   1.80991   1.81892
  Beta virt. eigenvalues --    1.82748   1.84209   1.84625   1.85201   1.86139
  Beta virt. eigenvalues --    1.87275   1.88206   1.89603   1.91441   1.92928
  Beta virt. eigenvalues --    1.94133   1.95291   1.95905   1.98116   1.98426
  Beta virt. eigenvalues --    1.99263   1.99725   2.02556   2.03441   2.04506
  Beta virt. eigenvalues --    2.06146   2.06872   2.07661   2.10660   2.12722
  Beta virt. eigenvalues --    2.13592   2.15202   2.16314   2.17608   2.25432
  Beta virt. eigenvalues --    2.26295   2.28113   2.28878   2.31706   2.33097
  Beta virt. eigenvalues --    2.34448   2.36755   2.38761   2.39418   2.40271
  Beta virt. eigenvalues --    2.41387   2.43464   2.44901   2.47532   2.49358
  Beta virt. eigenvalues --    2.49817   2.53950   2.55000   2.56230   2.58293
  Beta virt. eigenvalues --    2.59008   2.60682   2.63999   2.65426   2.66161
  Beta virt. eigenvalues --    2.68569   2.70916   2.75533   2.76455   2.77787
  Beta virt. eigenvalues --    2.80635   2.82504   2.82705   2.83249   2.84161
  Beta virt. eigenvalues --    2.84193   2.85295   2.85866   2.86962   2.87199
  Beta virt. eigenvalues --    2.88219   2.89372   2.89849   2.91156   2.93187
  Beta virt. eigenvalues --    2.94610   2.95535   2.95688   2.96969   2.98143
  Beta virt. eigenvalues --    2.98488   2.99823   3.02900   3.04236   3.04564
  Beta virt. eigenvalues --    3.06720   3.08272   3.16015   3.19306   3.19870
  Beta virt. eigenvalues --    3.24376   3.26185   3.28214   3.30256   3.31262
  Beta virt. eigenvalues --    3.31631   3.34573   3.35793   3.37305   3.38393
  Beta virt. eigenvalues --    3.41502   3.42377   3.43250   3.45153   3.48277
  Beta virt. eigenvalues --    3.50329   3.53917   3.56509   3.59808   3.64049
  Beta virt. eigenvalues --    3.64821   3.76163   3.97270   4.47306   4.57546
  Beta virt. eigenvalues --    4.62164   4.64395   4.72497   4.73799   4.74754
  Beta virt. eigenvalues --    4.86729   4.91402   5.03191   5.46726   5.81759
  Beta virt. eigenvalues --    5.84451   6.11081  22.21546  22.63348  58.49199
  Beta virt. eigenvalues --   58.49244  58.50369  58.50618  58.50847  58.55678
  Beta virt. eigenvalues --   58.56165  58.56354  58.56652  58.56825  95.62859
  Beta virt. eigenvalues --  106.32239 106.33250 106.40413
          Condensed to atoms (all electrons):
               1          2          3          4          5          6
     1  O    8.683735  -0.035590  -0.084404  -0.001748   0.037443  -0.003806
     2  N   -0.035590   7.372333   0.087782  -0.062039  -0.018997   0.015986
     3  C   -0.084404   0.087782   5.433867   0.243549  -0.100789   0.018251
     4  C   -0.001748  -0.062039   0.243549   5.179627   0.610121  -0.034002
     5  C    0.037443  -0.018997  -0.100789   0.610121   5.395094   0.193799
     6  C   -0.003806   0.015986   0.018251  -0.034002   0.193799   5.227873
     7  S   -0.000796   0.005078   0.000208  -0.002562  -0.129013   0.259219
     8  C   -0.069731   0.062545  -0.139911  -0.057047   0.215187  -0.075276
     9  C   -0.014118  -0.091612   0.006751  -0.002804  -0.065820   0.008919
    10  C   -0.006620  -0.087258   0.017821  -0.010095  -0.078852   0.005104
    11  C   -0.002805  -0.105962   0.312098  -0.049673  -0.009756  -0.002377
    12  C   -0.005366  -0.093698   0.313210  -0.074881  -0.002467  -0.001623
    13  H   -0.000704   0.003969  -0.035804   0.406034  -0.050074  -0.001609
    14  H    0.000041  -0.001718   0.002730   0.022900  -0.082016   0.420155
    15  H    0.000141  -0.003427  -0.000083   0.005519  -0.063679   0.407669
    16  H   -0.001503   0.015259  -0.004235   0.004142   0.001621  -0.000782
    17  H   -0.000572   0.006456  -0.000388   0.001093  -0.006400   0.002193
    18  H    0.007796  -0.024963   0.001721  -0.000903   0.008428  -0.000987
    19  H    0.008283  -0.025683  -0.001360  -0.001407   0.019227  -0.001358
    20  H   -0.000653   0.004852  -0.000767   0.001493  -0.003017   0.002119
    21  H   -0.000277   0.005905   0.001552   0.000654  -0.004034   0.003700
    22  H   -0.000072   0.003602  -0.053996  -0.005399   0.008526  -0.000710
    23  H   -0.000806   0.006825  -0.046704   0.001163   0.001638  -0.000050
    24  H    0.007410  -0.024731  -0.033510   0.015719  -0.002710   0.000076
    25  H    0.008064  -0.030839  -0.025841   0.015546  -0.001124   0.000018
    26  H   -0.000534   0.009950  -0.047852  -0.002713   0.000071  -0.000028
    27  H   -0.000591   0.011733  -0.061284  -0.004041   0.005044  -0.000534
    28  S   -0.000161  -0.000378  -0.000858  -0.031300  -0.004963  -0.004358
    29  O    0.000209   0.004049  -0.003231   0.031052   0.009601   0.004780
    30  O    0.000154  -0.001428  -0.005460   0.025264   0.017620  -0.024302
    31  C    0.000010   0.000047  -0.000631   0.003307   0.004072  -0.000366
    32  H   -0.000000  -0.000006   0.000031  -0.000133  -0.000413   0.000162
    33  H   -0.000000   0.000004   0.000018   0.000004   0.000072   0.000199
    34  H   -0.000000  -0.000000  -0.000024  -0.000510   0.000115  -0.000417
               7          8          9         10         11         12
     1  O   -0.000796  -0.069731  -0.014118  -0.006620  -0.002805  -0.005366
     2  N    0.005078   0.062545  -0.091612  -0.087258  -0.105962  -0.093698
     3  C    0.000208  -0.139911   0.006751   0.017821   0.312098   0.313210
     4  C   -0.002562  -0.057047  -0.002804  -0.010095  -0.049673  -0.074881
     5  C   -0.129013   0.215187  -0.065820  -0.078852  -0.009756  -0.002467
     6  C    0.259219  -0.075276   0.008919   0.005104  -0.002377  -0.001623
     7  S   15.867611  -0.003629   0.003411  -0.000444  -0.000202   0.000885
     8  C   -0.003629   5.427248   0.324174   0.325614   0.017515   0.019369
     9  C    0.003411   0.324174   5.010943  -0.085584  -0.005470   0.005022
    10  C   -0.000444   0.325614  -0.085584   5.035413   0.005285  -0.006141
    11  C   -0.000202   0.017515  -0.005470   0.005285   5.034823  -0.081942
    12  C    0.000885   0.019369   0.005022  -0.006141  -0.081942   5.022475
    13  H    0.000002   0.012425  -0.000892  -0.001534  -0.000744   0.002792
    14  H   -0.042033   0.002757   0.000037  -0.001846  -0.000145  -0.000034
    15  H   -0.041522   0.007993  -0.000963   0.005730   0.000309  -0.000068
    16  H    0.000898  -0.064357   0.412561   0.009173   0.000177  -0.001454
    17  H    0.001038  -0.034360   0.399655  -0.004113   0.000149  -0.000147
    18  H    0.000067  -0.033170   0.412428  -0.003992  -0.000065  -0.000042
    19  H    0.000038  -0.040713  -0.002765   0.415600  -0.000285   0.000096
    20  H   -0.000209  -0.038658  -0.003851   0.401424  -0.000074   0.000153
    21  H   -0.001069  -0.055899   0.008354   0.409819  -0.000910  -0.000078
    22  H    0.000010  -0.001713   0.000083  -0.001097   0.410815   0.008390
    23  H    0.000005  -0.001197   0.000161  -0.000077   0.405897  -0.002814
    24  H   -0.000013   0.000672  -0.000031  -0.000267   0.411817  -0.003944
    25  H   -0.000036  -0.002167   0.000104  -0.000026  -0.004403   0.410108
    26  H   -0.000004  -0.000831  -0.000145   0.000175  -0.002272   0.406573
    27  H   -0.000041  -0.000313  -0.001526   0.000101   0.009089   0.412659
    28  S    0.310702   0.002572  -0.003341  -0.000200  -0.000881   0.002172
    29  O   -0.075031  -0.007235  -0.000873   0.000090   0.000296  -0.006332
    30  O   -0.083386  -0.003012   0.000711  -0.000045   0.001101   0.000459
    31  C   -0.052263  -0.001014   0.000203   0.000046   0.000057  -0.000195
    32  H   -0.000649   0.000130  -0.000066  -0.000002  -0.000000  -0.000007
    33  H    0.001493  -0.000038  -0.000002   0.000001  -0.000000  -0.000006
    34  H    0.002610   0.000119   0.000003  -0.000001  -0.000000   0.000008
              13         14         15         16         17         18
     1  O   -0.000704   0.000041   0.000141  -0.001503  -0.000572   0.007796
     2  N    0.003969  -0.001718  -0.003427   0.015259   0.006456  -0.024963
     3  C   -0.035804   0.002730  -0.000083  -0.004235  -0.000388   0.001721
     4  C    0.406034   0.022900   0.005519   0.004142   0.001093  -0.000903
     5  C   -0.050074  -0.082016  -0.063679   0.001621  -0.006400   0.008428
     6  C   -0.001609   0.420155   0.407669  -0.000782   0.002193  -0.000987
     7  S    0.000002  -0.042033  -0.041522   0.000898   0.001038   0.000067
     8  C    0.012425   0.002757   0.007993  -0.064357  -0.034360  -0.033170
     9  C   -0.000892   0.000037  -0.000963   0.412561   0.399655   0.412428
    10  C   -0.001534  -0.001846   0.005730   0.009173  -0.004113  -0.003992
    11  C   -0.000744  -0.000145   0.000309   0.000177   0.000149  -0.000065
    12  C    0.002792  -0.000034  -0.000068  -0.001454  -0.000147  -0.000042
    13  H    0.508656   0.002176  -0.000024  -0.000039  -0.000001   0.000004
    14  H    0.002176   0.489482  -0.014207  -0.000035  -0.000017   0.000001
    15  H   -0.000024  -0.014207   0.530652   0.000090  -0.000044   0.000012
    16  H   -0.000039  -0.000035   0.000090   0.537199  -0.019366  -0.015169
    17  H   -0.000001  -0.000017  -0.000044  -0.019366   0.566147  -0.020939
    18  H    0.000004   0.000001   0.000012  -0.015169  -0.020939   0.523688
    19  H    0.000005   0.000004  -0.000033  -0.000009  -0.000256   0.001932
    20  H    0.000002   0.000018  -0.000061   0.000095   0.001250  -0.000158
    21  H   -0.000016  -0.000008  -0.000238  -0.000140   0.000076   0.000032
    22  H    0.000093   0.000004   0.000002  -0.000001   0.000000   0.000000
    23  H    0.000552   0.000001   0.000000  -0.000000  -0.000000   0.000000
    24  H    0.000014   0.000000  -0.000000  -0.000001   0.000000  -0.000002
    25  H   -0.000040  -0.000000   0.000000  -0.000002   0.000000  -0.000009
    26  H    0.000161  -0.000001   0.000000   0.000008  -0.000000  -0.000000
    27  H   -0.000128  -0.000002   0.000000   0.000302   0.000010  -0.000010
    28  S    0.003443  -0.014052   0.002913  -0.000878  -0.000973   0.000375
    29  O   -0.000354   0.001019  -0.000796  -0.000042   0.000180  -0.000007
    30  O   -0.000994   0.011494  -0.001275   0.000066   0.000021  -0.000010
    31  C   -0.000113   0.000444  -0.000052   0.000033   0.000049  -0.000003
    32  H    0.000000   0.000005  -0.000000  -0.000000  -0.000000   0.000000
    33  H    0.000000  -0.000011   0.000000   0.000000   0.000000  -0.000000
    34  H    0.000001   0.000025  -0.000000   0.000000  -0.000000   0.000000
              19         20         21         22         23         24
     1  O    0.008283  -0.000653  -0.000277  -0.000072  -0.000806   0.007410
     2  N   -0.025683   0.004852   0.005905   0.003602   0.006825  -0.024731
     3  C   -0.001360  -0.000767   0.001552  -0.053996  -0.046704  -0.033510
     4  C   -0.001407   0.001493   0.000654  -0.005399   0.001163   0.015719
[...]
     8  C    0.211952  -0.036926
     9  C    0.065931   0.023007
    10  C    0.031882   0.021468
    11  C    0.040093   0.021092
    12  C    0.059550   0.023785
    28  S    0.890824  -0.000078
    29  O   -0.511697   0.000010
    30  O   -0.569331  -0.000005
    31  C    0.150218  -0.000009
 Electronic spatial extent (au):  <R**2>=           4767.3599
 Charge=              0.0000 electrons
 Dipole moment (field-independent basis, Debye):
    X=              4.1863    Y=              1.8434    Z=             -2.1943  Tot=              5.0733
 Quadrupole moment (field-independent basis, Debye-Ang):
   XX=           -107.4788   YY=           -109.0368   ZZ=           -116.2629
   XY=              5.4146   XZ=              6.9300   YZ=             -0.6327
 Traceless Quadrupole moment (field-independent basis, Debye-Ang):
   XX=              3.4474   YY=              1.8893   ZZ=             -5.3368
   XY=              5.4146   XZ=              6.9300   YZ=             -0.6327
 Octapole moment (field-independent basis, Debye-Ang**2):
  XXX=            186.1606  YYY=             -3.8236  ZZZ=              0.2592  XYY=            -14.0031
  XXY=             -8.3494  XXZ=             -9.6570  XZZ=              0.3570  YZZ=              5.9828
  YYZ=             -2.4219  XYZ=              0.5379
 Hexadecapole moment (field-independent basis, Debye-Ang**3):
 XXXX=          -3953.2504 YYYY=          -1372.6548 ZZZZ=           -682.6412 XXXY=            -19.1551
 XXXZ=            126.5013 YYYX=            -16.4662 YYYZ=              0.9864 ZZZX=            -10.8759
 ZZZY=             -2.3381 XXYY=           -933.2666 XXZZ=           -858.9801 YYZZ=           -350.7024
 XXYZ=             -4.2103 YYXZ=             -4.3543 ZZXY=             14.7465
 N-N= 1.521243017072D+03 E-N=-6.497900199601D+03  KE= 1.459912018379D+03
                          Isotropic Fermi Contact Couplings
        Atom                 a.u.       MegaHertz       Gauss      10(-4) cm-1
     1  O(17)              0.08621     -52.26306     -18.64876     -17.43308
     2  N(14)              0.10336      33.39555      11.91636      11.13956
     3  C(13)             -0.01557     -17.50747      -6.24710      -5.83986
     4  C(13)             -0.00043      -0.47946      -0.17108      -0.15993
     5  C(13)             -0.00067      -0.75109      -0.26801      -0.25054
     6  C(13)             -0.00077      -0.86396      -0.30828      -0.28819
     7  S(33)              0.00002       0.00651       0.00232       0.00217
     8  C(13)             -0.01588     -17.85392      -6.37072      -5.95543
     9  C(13)              0.01406      15.80312       5.63895       5.27135
    10  C(13)              0.01708      19.20109       6.85143       6.40479
    11  C(13)              0.01646      18.50413       6.60273       6.17231
    12  C(13)              0.01471      16.53443       5.89989       5.51529
    13  H(1)              -0.00037      -1.63801      -0.58448      -0.54638
    14  H(1)              -0.00001      -0.02534      -0.00904      -0.00845
    15  H(1)               0.00002       0.10577       0.03774       0.03528
    16  H(1)              -0.00038      -1.71030      -0.61028      -0.57049
    17  H(1)               0.00033       1.48603       0.53025       0.49568
    18  H(1)              -0.00053      -2.35123      -0.83898      -0.78429
    19  H(1)              -0.00050      -2.24935      -0.80262      -0.75030
    20  H(1)               0.00037       1.64922       0.58848       0.55012
    21  H(1)              -0.00035      -1.57594      -0.56234      -0.52568
    22  H(1)              -0.00035      -1.58513      -0.56561      -0.52874
    23  H(1)               0.00033       1.49732       0.53428       0.49945
    24  H(1)              -0.00048      -2.14998      -0.76717      -0.71716
    25  H(1)              -0.00051      -2.29712      -0.81967      -0.76624
    26  H(1)               0.00038       1.70854       0.60965       0.56991
    27  H(1)              -0.00039      -1.73477      -0.61901      -0.57866
    28  S(33)             -0.00000      -0.00029      -0.00010      -0.00010
    29  O(17)             -0.00001       0.00434       0.00155       0.00145
    30  O(17)             -0.00003       0.01767       0.00630       0.00589
    31  C(13)             -0.00000      -0.00033      -0.00012      -0.00011
    32  H(1)               0.00000       0.00079       0.00028       0.00026
    33  H(1)               0.00000       0.00226       0.00081       0.00075
    34  H(1)              -0.00000      -0.00047      -0.00017      -0.00016
 --------------------------------------------------------
       Center         ----  Spin Dipole Couplings  ----
                      3XX-RR        3YY-RR        3ZZ-RR
 --------------------------------------------------------
     1   Atom       -0.306078     -0.888679      1.194757
     2   Atom       -0.183642     -0.561782      0.745423
     3   Atom       -0.005827      0.011040     -0.005213
     4   Atom        0.005214     -0.005193     -0.000021
     5   Atom        0.008749     -0.007160     -0.001588
     6   Atom        0.002162     -0.001349     -0.000813
     7   Atom        0.002643     -0.001417     -0.001226
     8   Atom        0.002187      0.004968     -0.007155
     9   Atom       -0.011158     -0.000062      0.011220
    10   Atom       -0.009347      0.019370     -0.010023
    11   Atom        0.000054      0.001945     -0.002000
    12   Atom       -0.017102      0.016585      0.000517
    13   Atom        0.001748     -0.001111     -0.000637
    14   Atom        0.001455     -0.001225     -0.000230
    15   Atom        0.001215     -0.000692     -0.000522
    16   Atom        0.003314     -0.003366      0.000052
    17   Atom        0.000414      0.002002     -0.002416
    18   Atom       -0.002118      0.004190     -0.002072
    19   Atom       -0.004859      0.009842     -0.004982
    20   Atom       -0.001216      0.003920     -0.002705
    21   Atom       -0.005590      0.000513      0.005077
    22   Atom       -0.005635     -0.002164      0.007799
    23   Atom       -0.002670      0.003603     -0.000933
    24   Atom       -0.001917      0.004164     -0.002247
    25   Atom       -0.004666      0.009522     -0.004856
    26   Atom       -0.002802      0.005375     -0.002573
    27   Atom       -0.000359      0.001809     -0.001450
    28   Atom        0.001431     -0.000730     -0.000700
    29   Atom        0.001481     -0.000695     -0.000786
    30   Atom        0.001049     -0.000594     -0.000454
    31   Atom        0.000666     -0.000331     -0.000336
    32   Atom        0.000623     -0.000312     -0.000311
    33   Atom        0.000521     -0.000250     -0.000271
    34   Atom        0.000553     -0.000286     -0.000267
 --------------------------------------------------------
                        XY            XZ            YZ
 --------------------------------------------------------
     1   Atom       -0.277448      1.306593     -0.494252
     2   Atom       -0.169350      0.762946     -0.298197
     3   Atom       -0.007300     -0.001159      0.006440
     4   Atom       -0.006396     -0.006775      0.003202
     5   Atom        0.002565     -0.007206     -0.001516
     6   Atom        0.000932     -0.001726     -0.000385
     7   Atom        0.001087      0.000625      0.000270
     8   Atom        0.011662     -0.001257     -0.002781
     9   Atom        0.010230      0.007951      0.022019
    10   Atom       -0.011690      0.004527     -0.017862
    11   Atom        0.015324      0.014176      0.018382
    12   Atom       -0.003738     -0.000818     -0.023376
    13   Atom       -0.002774     -0.002863      0.001725
    14   Atom        0.000292     -0.001641     -0.000212
    15   Atom        0.001541     -0.001639     -0.000917
    16   Atom        0.003640      0.007193      0.002016
    17   Atom        0.005252      0.000575      0.001125
    18   Atom        0.005670      0.002170      0.008010
    19   Atom       -0.001522     -0.001240     -0.005316
    20   Atom        0.003278     -0.001013     -0.003157
    21   Atom        0.001005      0.000248     -0.007436
    22   Atom        0.000620      0.002906      0.005403
    23   Atom       -0.000954     -0.000092      0.004685
    24   Atom        0.005454      0.001851      0.007099
    25   Atom       -0.001427     -0.001328     -0.005469
    26   Atom       -0.003454     -0.000655      0.000415
    27   Atom       -0.005963      0.004975     -0.004321
    28   Atom       -0.000205     -0.000176      0.000029
    29   Atom       -0.000553      0.000338     -0.000080
    30   Atom       -0.000392     -0.000556      0.000141
    31   Atom       -0.000043     -0.000048      0.000002
    32   Atom        0.000037      0.000068      0.000003
    33   Atom       -0.000124     -0.000022      0.000004
    34   Atom        0.000021     -0.000134     -0.000003
 --------------------------------------------------------


 ---------------------------------------------------------------------------------
              Anisotropic Spin Dipole Couplings in Principal Axis System
 ---------------------------------------------------------------------------------

       Atom             a.u.   MegaHertz   Gauss  10(-4) cm-1        Axes

              Baa    -1.0632    76.935    27.452    25.663  0.8498 -0.1095 -0.5157
     1 O(17)  Bbb    -0.9968    72.127    25.737    24.059  0.1904  0.9759  0.1066
              Bcc     2.0600  -149.062   -53.189   -49.722  0.4916 -0.1887  0.8501
 
              Baa    -0.6272   -24.191    -8.632    -8.069  0.1804  0.9772  0.1120
     2 N(14)  Bbb    -0.6122   -23.611    -8.425    -7.876  0.8577 -0.1006 -0.5041
              Bcc     1.2394    47.802    17.057    15.945  0.4814 -0.1870  0.8563
 
              Baa    -0.0092    -1.231    -0.439    -0.411  0.7711  0.4285 -0.4710
     3 C(13)  Bbb    -0.0066    -0.881    -0.315    -0.294  0.5502 -0.0761  0.8316
              Bcc     0.0157     2.113     0.754     0.705 -0.3205  0.9003  0.2944
 
              Baa    -0.0082    -1.105    -0.394    -0.369  0.4310  0.9023  0.0037
     4 C(13)  Bbb    -0.0044    -0.596    -0.213    -0.199  0.4572 -0.2220  0.8612
              Bcc     0.0127     1.701     0.607     0.567  0.7779 -0.3695 -0.5082
 
              Baa    -0.0076    -1.022    -0.365    -0.341 -0.0957  0.9864  0.1337
     5 C(13)  Bbb    -0.0053    -0.708    -0.253    -0.236  0.4665 -0.0742  0.8814
              Bcc     0.0129     1.730     0.617     0.577  0.8793  0.1467 -0.4531
 
              Baa    -0.0016    -0.219    -0.078    -0.073  0.4546 -0.5452  0.7043
     6 C(13)  Bbb    -0.0015    -0.208    -0.074    -0.069  0.0678  0.8096  0.5830
              Bcc     0.0032     0.426     0.152     0.142  0.8881  0.2173 -0.4050
 
              Baa    -0.0017    -0.071    -0.025    -0.024 -0.1971  0.9436 -0.2660
     7 S(33)  Bbb    -0.0013    -0.053    -0.019    -0.018 -0.2124  0.2238  0.9512
              Bcc     0.0030     0.124     0.044     0.041  0.9571  0.2439  0.1563
 
              Baa    -0.0088    -1.181    -0.421    -0.394 -0.5653  0.5943  0.5720
     8 C(13)  Bbb    -0.0069    -0.925    -0.330    -0.309  0.5014 -0.3030  0.8104
              Bcc     0.0157     2.106     0.751     0.703  0.6550  0.7449 -0.1267
 
              Baa    -0.0193    -2.588    -0.923    -0.863 -0.5483  0.7394 -0.3908
     9 C(13)  Bbb    -0.0127    -1.703    -0.608    -0.568  0.7878  0.2999 -0.5380
              Bcc     0.0320     4.291     1.531     1.431  0.2806  0.6028  0.7469
 
              Baa    -0.0186    -2.495    -0.890    -0.832  0.1509  0.4585  0.8758
    10 C(13)  Bbb    -0.0130    -1.748    -0.624    -0.583  0.9444  0.1948 -0.2647
              Bcc     0.0316     4.243     1.514     1.415 -0.2920  0.8671 -0.4036
 
              Baa    -0.0185    -2.486    -0.887    -0.829 -0.0446 -0.6487  0.7597
    11 C(13)  Bbb    -0.0135    -1.817    -0.648    -0.606  0.8365 -0.4400 -0.3266
              Bcc     0.0321     4.303     1.536     1.435  0.5462  0.6209  0.5623
 
              Baa    -0.0196    -2.628    -0.938    -0.877  0.7688  0.4013  0.4980
    12 C(13)  Bbb    -0.0138    -1.854    -0.662    -0.618 -0.6375  0.4188  0.6467
              Bcc     0.0334     4.482     1.599     1.495 -0.0509  0.8146 -0.5778
 
              Baa    -0.0028    -1.496    -0.534    -0.499  0.5414  0.8394  0.0472
    13 H(1)   Bbb    -0.0025    -1.341    -0.478    -0.447  0.3896 -0.3002  0.8707
              Bcc     0.0053     2.836     1.012     0.946  0.7450 -0.4530 -0.4896
 
              Baa    -0.0013    -0.682    -0.243    -0.227  0.2061  0.8448  0.4939
    14 H(1)   Bbb    -0.0012    -0.648    -0.231    -0.216  0.4864 -0.5264  0.6974
              Bcc     0.0025     1.329     0.474     0.443  0.8491  0.0965 -0.5193
 
              Baa    -0.0016    -0.828    -0.295    -0.276 -0.4565  0.8874  0.0639
    15 H(1)   Bbb    -0.0015    -0.804    -0.287    -0.268  0.4398  0.1627  0.8833
              Bcc     0.0031     1.632     0.582     0.544  0.7734  0.4313 -0.4645
 
              Baa    -0.0060    -3.207    -1.144    -1.070  0.6519 -0.4122 -0.6365
    16 H(1)   Bbb    -0.0043    -2.285    -0.815    -0.762  0.0588  0.8643 -0.4995
              Bcc     0.0103     5.492     1.960     1.832  0.7560  0.2882  0.5877
 
              Baa    -0.0042    -2.219    -0.792    -0.740  0.7315 -0.6569  0.1828
    17 H(1)   Bbb    -0.0025    -1.348    -0.481    -0.450 -0.2257  0.0198  0.9740
              Bcc     0.0067     3.567     1.273     1.190  0.6435  0.7537  0.1338
 
              Baa    -0.0080    -4.290    -1.531    -1.431  0.3330 -0.6198  0.7107
    18 H(1)   Bbb    -0.0041    -2.180    -0.778    -0.727  0.8607 -0.1081 -0.4975
              Bcc     0.0121     6.470     2.309     2.158  0.3852  0.7773  0.4974
 
              Baa    -0.0077    -4.095    -1.461    -1.366  0.5126  0.2898  0.8082
    19 H(1)   Bbb    -0.0039    -2.105    -0.751    -0.702  0.8561 -0.1009 -0.5068
              Bcc     0.0116     6.201     2.213     2.068 -0.0653  0.9517 -0.2999
 
              Baa    -0.0040    -2.144    -0.765    -0.715 -0.1781  0.4262  0.8869
    20 H(1)   Bbb    -0.0026    -1.414    -0.504    -0.472  0.8998 -0.2942  0.3220
              Bcc     0.0067     3.558     1.270     1.187  0.3982  0.8554 -0.3312
 
              Baa    -0.0063    -3.359    -1.199    -1.121  0.8081 -0.4848 -0.3346
    21 H(1)   Bbb    -0.0043    -2.288    -0.816    -0.763  0.5885  0.6407  0.4931
              Bcc     0.0106     5.647     2.015     1.884 -0.0247 -0.5954  0.8030
 
              Baa    -0.0063    -3.385    -1.208    -1.129  0.9367  0.2166 -0.2752
    22 H(1)   Bbb    -0.0043    -2.316    -0.826    -0.773 -0.3029  0.8955 -0.3261
              Bcc     0.0107     5.701     2.034     1.902  0.1758  0.3888  0.9044
 
              Baa    -0.0040    -2.142    -0.764    -0.714 -0.3190 -0.5252  0.7889
    23 H(1)   Bbb    -0.0026    -1.390    -0.496    -0.464  0.9433 -0.0951  0.3181
              Bcc     0.0066     3.532     1.260     1.178 -0.0920  0.8457  0.5257
 
              Baa    -0.0074    -3.942    -1.406    -1.315  0.3658 -0.6065  0.7059
    24 H(1)   Bbb    -0.0038    -2.010    -0.717    -0.670  0.8424 -0.1066 -0.5281
              Bcc     0.0112     5.952     2.124     1.985  0.3956  0.7879  0.4720
 
              Baa    -0.0077    -4.102    -1.464    -1.368  0.4990  0.2998  0.8131
    25 H(1)   Bbb    -0.0037    -1.991    -0.711    -0.664  0.8647 -0.1092 -0.4903
              Bcc     0.0114     6.093     2.174     2.032 -0.0582  0.9477 -0.3137
 
              Baa    -0.0042    -2.244    -0.801    -0.748  0.9059  0.3143  0.2838
    26 H(1)   Bbb    -0.0025    -1.320    -0.471    -0.440 -0.2448 -0.1583  0.9566
              Bcc     0.0067     3.564     1.272     1.189 -0.3456  0.9360  0.0665
 
              Baa    -0.0061    -3.269    -1.166    -1.090  0.7730  0.2678 -0.5751
    27 H(1)   Bbb    -0.0043    -2.271    -0.810    -0.758  0.2447  0.7105  0.6598
              Bcc     0.0104     5.540     1.977     1.848 -0.5853  0.6508 -0.4837
 
              Baa    -0.0008    -0.031    -0.011    -0.010  0.0641  0.9484 -0.3106
    28 S(33)  Bbb    -0.0007    -0.029    -0.010    -0.010  0.1071  0.3029  0.9470
              Bcc     0.0015     0.060     0.021     0.020  0.9922 -0.0939 -0.0821
 
              Baa    -0.0008     0.060     0.022     0.020 -0.1581 -0.0601  0.9856
    29 O(17)  Bbb    -0.0008     0.060     0.021     0.020  0.2189  0.9712  0.0943
              Bcc     0.0017    -0.120    -0.043    -0.040  0.9629 -0.2306  0.1404
 
              Baa    -0.0007     0.050     0.018     0.017  0.1303  0.9550 -0.2666
    30 O(17)  Bbb    -0.0006     0.046     0.016     0.015  0.3497  0.2073  0.9136
              Bcc     0.0013    -0.096    -0.034    -0.032  0.9277 -0.2123 -0.3070
 
              Baa    -0.0003    -0.045    -0.016    -0.015  0.0442 -0.0788  0.9959
    31 C(13)  Bbb    -0.0003    -0.045    -0.016    -0.015  0.0462  0.9960  0.0767
              Bcc     0.0007     0.090     0.032     0.030  0.9980 -0.0426 -0.0477
 
              Baa    -0.0003    -0.169    -0.060    -0.056 -0.0710 -0.0295  0.9970
    32 H(1)   Bbb    -0.0003    -0.167    -0.060    -0.056 -0.0410  0.9988  0.0266
              Bcc     0.0006     0.336     0.120     0.112  0.9966  0.0390  0.0721
 
              Baa    -0.0003    -0.145    -0.052    -0.048  0.0283 -0.0006  0.9996
    33 H(1)   Bbb    -0.0003    -0.144    -0.051    -0.048  0.1550  0.9879 -0.0038
              Bcc     0.0005     0.289     0.103     0.096  0.9875 -0.1550 -0.0280
 
              Baa    -0.0003    -0.154    -0.055    -0.051  0.1577 -0.3008  0.9405
    34 H(1)   Bbb    -0.0003    -0.153    -0.054    -0.051  0.0240  0.9533  0.3009
              Bcc     0.0006     0.307     0.109     0.102  0.9872  0.0249 -0.1575
 

 ---------------------------------------------------------------------------------

 No NMR shielding tensors so no spin-rotation constants.
 Leave Link  601 at Wed Jun 12 15:25:54 2019, MaxMem=  8053063680 cpu:               0.0 elap:               0.3
 (Enter /data2/g16/g16/l9999.exe)
 1\1\GINC-CU06\SP\UPBE1PBE\Gen\C10H18N1O3S2(2)\ROOT\12-Jun-2019\0\\#p g
 en 6d pbe1pbe\\start preoptimized\\0,2\O,0,-3.694982,0.178249,0.996701
 \N,0,-2.632931,0.042069,0.332221\C,0,-2.167833,-1.267829,-0.167232\C,0
 ,-0.867083,-0.860792,-0.791939\C,0,-0.598804,0.441974,-0.651188\C,0,0.
 608445,1.122076,-1.195688\S,0,1.945867,1.448161,0.033285\C,0,-1.699106
 ,1.165435,0.098041\C,0,-1.269336,1.75111,1.445311\C,0,-2.396699,2.2332
 54,-0.750614\C,0,-3.169301,-1.822744,-1.18268\C,0,-1.989442,-2.237264,
 1.004931\H,0,-0.216433,-1.573674,-1.292213\H,0,1.065089,0.535949,-1.99
 6342\H,0,0.385048,2.122395,-1.583368\H,0,-0.724815,1.01274,2.039919\H,
 0,-0.624983,2.625265,1.304761\H,0,-2.164628,2.059391,1.994322\H,0,-3.3
 02992,2.565735,-0.233646\H,0,-1.747885,3.10393,-0.897869\H,0,-2.680398
 ,1.834468,-1.729586\H,0,-3.283885,-1.141758,-2.032764\H,0,-2.831784,-2
 .796133,-1.556776\H,0,-4.144369,-1.949848,-0.702238\H,0,-2.946551,-2.3
 58814,1.52217\H,0,-1.656377,-3.215213,0.640768\H,0,-1.247209,-1.86165,
 1.714599\S,0,2.755123,-0.531188,0.106576\O,0,2.329632,-1.20949,1.34942
 4\O,0,2.500839,-1.172762,-1.207259\C,0,4.510088,-0.17958,0.240546\H,0,
 4.666952,0.434218,1.130487\H,0,4.992013,-1.153987,0.353306\H,0,4.83039
 8,0.327114,-0.669695\\Version=AM64L-G16RevB.01\State=2-A\HF=-1467.5487
 677\S2=0.754978\S2-1=0.\S2A=0.750017\RMSD=8.150e-09\Dipole=1.6455016,0
 .726378,-0.8652373\Quadrupole=2.5663515,1.4113873,-3.9777388,4.0280863
 ,5.144615,-0.471959\PG=C01 [X(C10H18N1O3S2)]\\@


 This summer one third of the nation will be ill-housed
 ill-nourished and ill-clad. Only they call it a vacation.
 -- Jonas Salk
 Elapsed time:       0 days  0 hours  2 minutes 42.6 seconds.
 File lengths (MBytes):  RWF=    181 Int=      0 D2E=      0 Chk=     15 Scr=      1
 Normal termination of Gaussian 16 at Wed Jun 12 15:25:54 2019.
