 Entering Gaussian System, Link 0=g16
 AtFile(1): /home/malgo/Basis_sets/n07d_pbe0.gbs
            -H 0
             6-31G
             S   1 1.00       0.000000000000
                  0.4000000000D+00  0.10000000D+01
             P   1 1.00       0.000000000000
                  0.7500000000D+00  0.10000000D+01
             ****
             -He 0
             6-31+G**
             ****
             -Li 0
             6-31+G**
             ****
             -Be 0
             6-31+G**
             ****
             -B 0
             6-31G
             S   1 1.00       0.000000000000
                  0.7000000000D+01  0.1000000000D+01
             P   1 1.00       0.000000000000
                  0.3500000000D-01  0.1000000000D+01
             D   1 1.00
                  0.3430000000D+00  0.1000000000D+01
             ****
             -C 0
             6-31G
             S   1 1.00       0.000000000000
                  0.8700000000D+01  0.1000000000D+01
             P   1 1.00       0.000000000000
                  0.5000000000D-01  0.1000000000D+01
             D   1 1.00
                  0.8200000000D+00  0.1000000000D+01
             ****
             -N 0
             6-31G
             S   1 1.00       0.000000000000
                  0.1370000000D+02  0.1000000000D+01
             P   1 1.00       0.000000000000
                  0.5300000000D-01  0.1000000000D+01
             D   1 1.00       0.000000000000
                  0.1015000000D+01  0.1000000000D+01
             ****
             -O 0
             6-31G
             S   1 1.00
                  0.1600000000D+02  0.1000000000D+01
             P   1 1.00       0.000000000000
                  0.6500000000D-01  0.1000000000D+01
             D   1 1.00        0.000000000000
                  0.1190000000D+01  0.1000000000D+01
             D   1 1.00        0.000000000000
                  0.1800000000D+00  0.1000000000D+01
             ****
             -F 0
             6-31G
             S   1 1.00
                  0.1770000000D+02  0.1000000000D+01
             P   1 1.00       0.000000000000
                  0.8300000000D-01  0.1000000000D+01
             D   1 1.00       0.000000000000
                  1.3700000000D+00  0.1000000000D+01
             D   1 1.00       0.000000000000
                  0.2300000000D+00  0.1000000000D+01
             ****
             -Ne 0
             6-31+G**
             ****
             -Na 0
             6-31+G**
             ****
             -Mg 0
             6-31+G**
             ****
             -Al 0
             6-31G
             S   1 1.00      0.000000000000
                  0.3100000000D+01  0.1000000000D+01
             P   1 1.00      0.000000000000
                  0.1500000000D-01  0.1000000000D+01
             D   1 1.00      0.000000000000
                  0.1890000000D+00  0.1000000000D+01
             ****
             -Si 0
             6-31G
             S   1 1.00      0.000000000000
                  0.5000000000D+01  0.1000000000D+01
             P   1 1.00       0.000000000000
                  0.3300000000D-01  0.1000000000D+01
             D   1 1.0        0.000000000000
                  0.2750000000D+00  0.1000000000D+01
             ****
             -P  0
             6-31G
             S   1 1.00       0.000000000000
                  0.6300000000D+01  0.1000000000D+01
             P   1 1.00       0.000000000000
                  0.3500000000D-01  0.1000000000D+01
             D   1 1.00       0.000000000000
                  0.3730000000D+00  0.1000000000D+01
             ****
             -S  0
             6-31G
             S   1  1.00      0.000000000000
                  0.7500000000D+01  0.1000000000D+01
             P   1 1.00       0.000000000000
                  0.4100000000D-01  0.1000000000D+01
             D   1 1.00       0.000000000000
                  0.4790000000D+00  0.1000000000D+01
             ****
            -Cl 0
             6-31G
             S   1 1.00       0.000000000000
                  0.8500000000D+01  0.1000000000D+01
             P   1 1.00       0.000000000000
                  0.4800000000D-01  0.1000000000D+01
             D   1 1.00       0.000000000000
                  0.6000000000D+00  0.1000000000D+01
             D   1 1.00       0.000000000000
                  0.1960000000D+00  0.1000000000D+01
             ****
            -Br 0
             S   3 1.00       0.000000000000
                  0.4721881000D+01  0.1749732514D+00
                  0.2257555000D+01 -0.7074172290D+00
                  0.3896080000D+00  0.1258999543D+01
             S   1 1.00       0.000000000000
                  0.1471340000D+00  0.1000000000D+01
             P   3 1.00       0.000000000000
                  0.1896942000D+01 -0.2464576731D+00
                  0.9108990000D+00  0.3623179892D+00
                  0.3168550000D+00  0.8338469725D+00
             P   1 1.00       0.000000000000
                  0.1095030000D+00  0.1000000000D+01
             P   1 1.00       0.000000000000
                  0.3609700000D-01  0.1000000000D+01
             D   1 1.00
                  0.4750000000D+00  0.1000000000D+01
             D   1 1.00
                  0.1280000000D+00  0.1000000000D+01
             ****
            -I   0
             S   3 1.00       0.000000000000
                  0.2122765000D+01  0.2063429899D+01
                  0.1770481000D+01 -0.2869526473D+01
                  0.3130840000D+00  0.1404747074D+01
             S   1 1.00       0.000000000000
                  0.1320000000D+00  0.1000000000D+01
             P   3 1.00       0.000000000000
                  0.2432887000D+01  0.7732753148D+00
                  0.2137249000D+01 -0.1020833156D+01
                  0.3145460000D+00  0.1095666871D+01
             P   1 1.00       0.000000000000
                  0.1049450000D+00  0.1000000000D+01
             P   1 1.00       0.000000000000
                  0.3264100000D-01  0.1000000000D+01
             D   1 1.00
                  0.300000000          1.00000000
             D   1 1.00
                  0.090000000          1.00000000
             ****
             -Zn 0
             SP   6 1.00       0.000000000000
                  0.6936492000D+02 -0.4440098182D-02 -0.7689261805D-02
                  0.2362082000D+02  0.7505253308D-01 -0.2997981924D-01
                  0.1018471000D+02  0.2533111104D+00  0.7082410821D-01
                  0.4334082000D+01 -0.2881897118D+00  0.4046140897D+00
                  0.1810918000D+01 -0.7267052298D+00  0.4882324876D+00
                  0.7148410000D+00 -0.2133439088D+00  0.1751969956D+00
             SP   3 1.00       0.000000000000
                  0.2823842000D+01  0.4898545031D-01 -0.1586762981D+00
                  0.1039543000D+01  0.2592794075D+00  0.8379326898D-01
                  0.1432640000D+00 -0.1115711463D+01  0.9840546881D+00
             SP   1 1.00       0.000000000000
                  0.4929600000D-01  0.1000000000D+01  0.1000000000D+01
             S    1 1.00       0.000000000000
                  0.1620000000D+00  0.1000000000D+01
             D    3 1.00       0.000000000000
                  0.3370764000D+02  0.9262647815D-01
                  0.9061106000D+01  0.4002979920D+00
                  0.2738383000D+01  0.6896607863D+00
             D    1 1.00
                  0.2440000000D+01  0.1000000000D+01
             D    1 1.00       0.000000000000
                  0.7302940000D+00  0.1000000000D+01
             D    1 1.00       0.000000000000
                  0.1620000000D+00  0.1000000000D+01
            ****
 Initial command:
 /data2/g16/g16/l1.exe "/tmp/Gau-21467.inp" -scrdir="/tmp/"
 Entering Link 1 = /data2/g16/g16/l1.exe PID=     21468.
  
 Copyright (c) 1988-2017, Gaussian, Inc.  All Rights Reserved.
  
 This is part of the Gaussian(R) 16 program.  It is based on
 the Gaussian(R) 09 system (copyright 2009, Gaussian, Inc.),
 the Gaussian(R) 03 system (copyright 2003, Gaussian, Inc.),
 the Gaussian(R) 98 system (copyright 1998, Gaussian, Inc.),
 the Gaussian(R) 94 system (copyright 1995, Gaussian, Inc.),
 the Gaussian 92(TM) system (copyright 1992, Gaussian, Inc.),
 the Gaussian 90(TM) system (copyright 1990, Gaussian, Inc.),
 the Gaussian 88(TM) system (copyright 1988, Gaussian, Inc.),
 the Gaussian 86(TM) system (copyright 1986, Carnegie Mellon
 University), and the Gaussian 82(TM) system (copyright 1983,
 Carnegie Mellon University). Gaussian is a federally registered
 trademark of Gaussian, Inc.
  
 This software contains proprietary and confidential information,
 including trade secrets, belonging to Gaussian, Inc.
  
 This software is provided under written license and may be
 used, copied, transmitted, or stored only in accord with that
 written license.
  
 The following legend is applicable only to US Government
 contracts under FAR:
  
                    RESTRICTED RIGHTS LEGEND
  
 Use, reproduction and disclosure by the US Government is
 subject to restrictions as set forth in subparagraphs (a)
 and (c) of the Commercial Computer Software - Restricted
 Rights clause in FAR 52.227-19.
  
 Gaussian, Inc.
 340 Quinnipiac St., Bldg. 40, Wallingford CT 06492
  
  
 ---------------------------------------------------------------
 Warning -- This program may not be used in any manner that
 competes with the business of Gaussian, Inc. or will provide
 assistance to any competitor of Gaussian, Inc.  The licensee
 of this program is prohibited from giving any competitor of
 Gaussian, Inc. access to this program.  By using this program,
 the user acknowledges that Gaussian, Inc. is engaged in the
 business of creating and licensing software in the field of
 computational chemistry and represents and warrants to the
 licensee that it is not a competitor of Gaussian, Inc. and that
 it will not use this program in any manner prohibited above.
 ---------------------------------------------------------------
  

 Cite this work as:
 Gaussian 16, Revision B.01,
 M. J. Frisch, G. W. Trucks, H. B. Schlegel, G. E. Scuseria, 
 M. A. Robb, J. R. Cheeseman, G. Scalmani, V. Barone, 
 G. A. Petersson, H. Nakatsuji, X. Li, M. Caricato, A. V. Marenich, 
 J. Bloino, B. G. Janesko, R. Gomperts, B. Mennucci, H. P. Hratchian, 
 J. V. Ortiz, A. F. Izmaylov, J. L. Sonnenberg, D. Williams-Young, 
 F. Ding, F. Lipparini, F. Egidi, J. Goings, B. Peng, A. Petrone, 
 T. Henderson, D. Ranasinghe, V. G. Zakrzewski, J. Gao, N. Rega, 
 G. Zheng, W. Liang, M. Hada, M. Ehara, K. Toyota, R. Fukuda, 
 J. Hasegawa, M. Ishida, T. Nakajima, Y. Honda, O. Kitao, H. Nakai, 
 T. Vreven, K. Throssell, J. A. Montgomery, Jr., J. E. Peralta, 
 F. Ogliaro, M. J. Bearpark, J. J. Heyd, E. N. Brothers, K. N. Kudin, 
 V. N. Staroverov, T. A. Keith, R. Kobayashi, J. Normand, 
 K. Raghavachari, A. P. Rendell, J. C. Burant, S. S. Iyengar, 
 J. Tomasi, M. Cossi, J. M. Millam, M. Klene, C. Adamo, R. Cammi, 
 J. W. Ochterski, R. L. Martin, K. Morokuma, O. Farkas, 
 J. B. Foresman, and D. J. Fox, Gaussian, Inc., Wallingford CT, 2016.
 
 ******************************************
 Gaussian 16:  AM64L-G16RevB.01 20-Dec-2017
                17-Jun-2019 
 ******************************************
 %chk=MTN_PBE0_0.27.chk
 %mem=60GB
 %nprocshared=12
 Will use up to   12 processors via shared memory.
 -----------------
 #p gen 6d pbe1pbe
 -----------------
 1/38=1,172=1/1;
 2/12=2,17=6,18=5,40=1/2;
 3/5=7,8=2,11=2,25=1,30=1,74=-13/1,2,3;
 4//1;
 5/5=2,38=5/2;
 6/7=2,8=2,9=2,10=2,28=1/1;
 99/5=1,9=1/99;
 Leave Link    1 at Mon Jun 17 21:30:47 2019, MaxMem=  8053063680 cpu:               0.0 elap:               0.1
 (Enter /data2/g16/g16/l101.exe)
 ------------------
 start preoptimized
 ------------------
 Symbolic Z-matrix:
 Charge =  0 Multiplicity = 2
 O                    -3.66268   0.16465   1.0562 
 N                    -2.64483   0.04547   0.30842 
 C                    -2.17123  -1.26783  -0.17233 
 C                    -0.86028  -0.86589  -0.77834 
 C                    -0.5954    0.43857  -0.64779 
 C                     0.61015   1.12038  -1.19399 
 S                     1.94757   1.45156   0.03329 
 C                    -1.70251   1.16543   0.08954 
 C                    -1.28634   1.74431   1.44361 
 C                    -2.3831    2.24005  -0.76591 
 C                    -3.1489   -1.82954  -1.20818 
 C                    -2.02344  -2.22706   1.01343 
 H                    -0.20453  -1.58047  -1.27011 
 H                     1.06679   0.53425  -1.99294 
 H                     0.38335   2.11899  -1.58337 
 H                    -0.75372   1.00084   2.04162 
 H                    -0.63518   2.61507   1.31156 
 H                    -2.18673   2.05429   1.98242 
 H                    -3.29619   2.57594  -0.26085 
 H                    -1.72919   3.10903  -0.90127 
 H                    -2.6549    1.84637  -1.74999 
 H                    -3.24309  -1.15366  -2.06676 
 H                    -2.80118  -2.80633  -1.56868 
 H                    -4.13587  -1.95495  -0.75154 
 H                    -2.99415  -2.33671   1.50857 
 H                    -1.68698  -3.21011   0.66457 
 H                    -1.29651  -1.84975   1.7367 
 S                     2.75342  -0.52949   0.10488 
 O                     2.32623  -1.20779   1.34772 
 O                     2.49744  -1.16766  -1.20896 
 C                     4.51009  -0.18468   0.23715 
 H                     4.67035   0.42742   1.12879 
 H                     4.98861  -1.16079   0.34821 
 H                     4.8304    0.32371  -0.6714 
 
 ITRead=  0  0  0  0  0  0  0  0  0  0  0  0  0  0  0  0  0  0  0  0
 ITRead=  0  0  0  0  0  0  0  0  0  0  0  0  0  0
 MicOpt= -1 -1 -1 -1 -1 -1 -1 -1 -1 -1 -1 -1 -1 -1 -1 -1 -1 -1 -1 -1
 MicOpt= -1 -1 -1 -1 -1 -1 -1 -1 -1 -1 -1 -1 -1 -1
 NAtoms=     34 NQM=       34 NQMF=       0 NMMI=      0 NMMIF=      0
                NMic=       0 NMicF=      0.
                    Isotopes and Nuclear Properties:
 (Nuclear quadrupole moments (NQMom) in fm**2, nuclear magnetic moments (NMagM)
  in nuclear magnetons)

  Atom         1           2           3           4           5           6           7           8           9          10
 IAtWgt=          16          14          12          12          12          12          32          12          12          12
 AtmWgt=  15.9949146  14.0030740  12.0000000  12.0000000  12.0000000  12.0000000  31.9720718  12.0000000  12.0000000  12.0000000
 NucSpn=           0           2           0           0           0           0           0           0           0           0
 AtZEff=   0.0000000   0.0000000   0.0000000   0.0000000   0.0000000   0.0000000   0.0000000   0.0000000   0.0000000   0.0000000
 NQMom=    0.0000000   2.0440000   0.0000000   0.0000000   0.0000000   0.0000000   0.0000000   0.0000000   0.0000000   0.0000000
 NMagM=    0.0000000   0.4037610   0.0000000   0.0000000   0.0000000   0.0000000   0.0000000   0.0000000   0.0000000   0.0000000
 AtZNuc=   8.0000000   7.0000000   6.0000000   6.0000000   6.0000000   6.0000000  16.0000000   6.0000000   6.0000000   6.0000000

  Atom        11          12          13          14          15          16          17          18          19          20
 IAtWgt=          12          12           1           1           1           1           1           1           1           1
 AtmWgt=  12.0000000  12.0000000   1.0078250   1.0078250   1.0078250   1.0078250   1.0078250   1.0078250   1.0078250   1.0078250
 NucSpn=           0           0           1           1           1           1           1           1           1           1
 AtZEff=   0.0000000   0.0000000   0.0000000   0.0000000   0.0000000   0.0000000   0.0000000   0.0000000   0.0000000   0.0000000
 NQMom=    0.0000000   0.0000000   0.0000000   0.0000000   0.0000000   0.0000000   0.0000000   0.0000000   0.0000000   0.0000000
 NMagM=    0.0000000   0.0000000   2.7928460   2.7928460   2.7928460   2.7928460   2.7928460   2.7928460   2.7928460   2.7928460
 AtZNuc=   6.0000000   6.0000000   1.0000000   1.0000000   1.0000000   1.0000000   1.0000000   1.0000000   1.0000000   1.0000000

  Atom        21          22          23          24          25          26          27          28          29          30
 IAtWgt=           1           1           1           1           1           1           1          32          16          16
 AtmWgt=   1.0078250   1.0078250   1.0078250   1.0078250   1.0078250   1.0078250   1.0078250  31.9720718  15.9949146  15.9949146
 NucSpn=           1           1           1           1           1           1           1           0           0           0
 AtZEff=   0.0000000   0.0000000   0.0000000   0.0000000   0.0000000   0.0000000   0.0000000   0.0000000   0.0000000   0.0000000
 NQMom=    0.0000000   0.0000000   0.0000000   0.0000000   0.0000000   0.0000000   0.0000000   0.0000000   0.0000000   0.0000000
 NMagM=    2.7928460   2.7928460   2.7928460   2.7928460   2.7928460   2.7928460   2.7928460   0.0000000   0.0000000   0.0000000
 AtZNuc=   1.0000000   1.0000000   1.0000000   1.0000000   1.0000000   1.0000000   1.0000000  16.0000000   8.0000000   8.0000000

  Atom        31          32          33          34
 IAtWgt=          12           1           1           1
 AtmWgt=  12.0000000   1.0078250   1.0078250   1.0078250
 NucSpn=           0           1           1           1
 AtZEff=   0.0000000   0.0000000   0.0000000   0.0000000
 NQMom=    0.0000000   0.0000000   0.0000000   0.0000000
 NMagM=    0.0000000   2.7928460   2.7928460   2.7928460
 AtZNuc=   6.0000000   1.0000000   1.0000000   1.0000000
 Leave Link  101 at Mon Jun 17 21:30:47 2019, MaxMem=  8053063680 cpu:               0.0 elap:               0.2
 (Enter /data2/g16/g16/l202.exe)
                          Input orientation:                          
 ---------------------------------------------------------------------
 Center     Atomic      Atomic             Coordinates (Angstroms)
 Number     Number       Type             X           Y           Z
 ---------------------------------------------------------------------
      1          8           0       -3.662682    0.164649    1.056201
      2          7           0       -2.644831    0.045469    0.308421
      3          6           0       -2.171233   -1.267829   -0.172332
      4          6           0       -0.860283   -0.865892   -0.778339
      5          6           0       -0.595404    0.438574   -0.647788
      6          6           0        0.610145    1.120376   -1.193988
      7         16           0        1.947567    1.451561    0.033285
      8          6           0       -1.702506    1.165435    0.089541
      9          6           0       -1.286336    1.744310    1.443611
     10          6           0       -2.383099    2.240054   -0.765914
     11          6           0       -3.148901   -1.829544   -1.208180
     12          6           0       -2.023442   -2.227064    1.013431
     13          1           0       -0.204533   -1.580474   -1.270113
     14          1           0        1.066789    0.534249   -1.992942
     15          1           0        0.383348    2.118995   -1.583368
     16          1           0       -0.753715    1.000840    2.041619
     17          1           0       -0.635183    2.615065    1.311561
     18          1           0       -2.186728    2.054291    1.982422
     19          1           0       -3.296192    2.575935   -0.260846
     20          1           0       -1.729185    3.109030   -0.901269
     21          1           0       -2.654898    1.846368   -1.749986
     22          1           0       -3.243085   -1.153658   -2.066764
     23          1           0       -2.801184   -2.806333   -1.568676
     24          1           0       -4.135869   -1.954948   -0.751538
     25          1           0       -2.994151   -2.336714    1.508570
     26          1           0       -1.686977   -3.210113    0.664568
     27          1           0       -1.296509   -1.849750    1.736699
     28         16           0        2.753423   -0.529488    0.104876
     29          8           0        2.326232   -1.207790    1.347724
     30          8           0        2.497439   -1.167662   -1.208959
     31          6           0        4.510088   -0.184680    0.237146
     32          1           0        4.670352    0.427418    1.128787
     33          1           0        4.988613   -1.160787    0.348206
     34          1           0        4.830398    0.323714   -0.671395
 ---------------------------------------------------------------------
                    Distance matrix (angstroms):
                    1          2          3          4          5
     1  O    0.000000
     2  N    1.268621   0.000000
     3  C    2.405350   1.476540   0.000000
     4  C    3.504425   2.279526   1.499129   0.000000
     5  C    3.519490   2.295434   2.370887   1.337474   0.000000
     6  C    4.922785   3.742663   3.805702   2.506029   1.488804
     7  S    5.846143   4.810708   4.939825   3.730059   2.820763
     8  C    2.403808   1.479935   2.491798   2.364074   1.515802
     9  C    2.879659   2.453615   3.530906   3.454235   2.560524
    10  C    3.043804   2.457418   3.564052   3.459194   2.540696
    11  C    3.060751   2.463704   1.531124   2.520151   3.461032
    12  C    2.899867   2.459181   1.532321   2.533016   3.450300
    13  H    4.518405   3.330242   2.273935   1.087418   2.148633
    14  H    5.639306   4.394462   4.128788   2.673810   2.140439
    15  H    5.211252   4.128952   4.470736   3.332303   2.158027
    16  H    3.183136   2.737340   3.472434   3.383520   2.752111
    17  H    3.903268   3.412887   4.431507   4.066376   2.928779
    18  H    2.570423   2.654713   3.959758   4.231870   3.472875
    19  H    2.771864   2.674246   4.005982   4.248250   3.465875
    20  H    4.029824   3.418649   4.459109   4.070640   2.912224
    21  H    3.423228   2.735028   3.524365   3.394274   2.727314
    22  H    3.415685   2.727145   2.179627   2.724077   3.399840
    23  H    4.056956   3.417706   2.171085   2.856053   4.030251
    24  H    2.825689   2.710789   2.160418   3.451989   4.274881
    25  H    2.628381   2.690200   2.155259   3.456394   4.255125
    26  H    3.930115   3.412204   2.169648   2.874157   4.028241
    27  H    3.181141   2.729433   2.179030   2.735633   3.378425
    28  S    6.523285   5.432601   4.987407   3.735252   3.566271
    29  O    6.151070   5.230896   4.747775   3.845896   3.902376
    30  O    6.697245   5.497006   4.783422   3.398646   3.529955
    31  C    8.221134   7.158974   6.780924   5.507826   5.218966
    32  H    8.337492   7.370942   7.167570   5.991469   5.557385
    33  H    8.780828   7.728267   7.179541   5.963694   5.893319
    34  H    8.668466   7.544303   7.197563   5.814675   5.427069
                    6          7          8          9         10
     6  C    0.000000
     7  S    1.845150   0.000000
     8  C    2.645342   3.661703   0.000000
     9  C    3.308000   3.540177   1.530294   0.000000
    10  C    3.224350   4.473825   1.532911   2.516079   0.000000
    11  C    4.778353   6.187154   3.570159   4.824270   4.164574
    12  C    4.797274   5.501080   3.530669   4.062043   4.821884
    13  H    2.822071   3.940002   3.410660   4.425922   4.426827
    14  H    1.091053   2.392243   3.521949   4.337204   4.039442
    15  H    1.095579   2.346448   2.838783   3.477188   2.887233
    16  H    3.513340   3.396098   2.176673   1.092724   3.474591
    17  H    3.172178   3.107785   2.175762   1.095286   2.740756
    18  H    4.334083   4.610294   2.146517   1.094126   2.761597
    19  H    4.271870   5.371009   2.156877   2.763385   1.096197
    20  H    3.084298   4.139940   2.181737   2.749007   1.095921
    21  H    3.390679   4.951627   2.180500   3.475980   1.094194
    22  H    4.558547   6.175778   3.521538   4.954777   3.734845
    23  H    5.215036   6.576213   4.442040   5.663655   5.126914
    24  H    5.672568   7.016298   4.045425   5.159751   4.546477
    25  H    5.678577   6.399068   3.993374   4.424433   5.147181
    26  H    5.242531   5.944715   4.413198   5.031275   5.677604
    27  H    4.587582   4.931967   3.459668   3.606005   4.916324
    28  S    3.000457   2.139880   4.767421   4.825145   5.900212
    29  O    3.850404   2.990533   4.842102   4.666341   6.207487
    30  O    2.966011   2.950569   4.976845   5.461928   5.968959
    31  C    4.354408   3.047189   6.359318   6.226965   7.375737
    32  H    4.728716   3.108465   6.499078   6.108637   7.525072
    33  H    5.172335   4.021380   7.088673   7.001035   8.194457
    34  H    4.326466   3.174796   6.630713   6.626144   7.464304
                   11         12         13         14         15
    11  C    0.000000
    12  C    2.521951   0.000000
    13  H    2.955533   2.990164   0.000000
    14  H    4.896469   5.119830   2.571147   0.000000
    15  H    5.311168   5.605732   3.758963   1.773771   0.000000
    16  H    4.930434   3.617837   4.234661   4.450800   3.960267
    17  H    5.694069   5.046024   4.945002   4.259841   3.108714
    18  H    5.117606   4.392676   5.264940   5.357184   4.395945
    19  H    4.508590   5.129569   5.277567   5.119008   3.936607
    20  H    5.147747   5.676844   4.944902   3.954582   2.430684
    21  H    3.748323   4.962666   4.240025   3.953687   3.055000
    22  H    1.096749   3.482432   3.170114   4.629200   4.908660
    23  H    1.097716   2.758208   2.886948   5.128421   5.865178
    24  H    1.094694   2.766136   3.983033   5.899562   6.141032
    25  H    2.768014   1.095199   4.009357   6.082290   6.389125
    26  H    2.747795   1.096038   2.931954   5.354048   6.143196
    27  H    3.479091   1.092664   3.210271   5.017853   5.440193
    28  S    6.184795   5.150308   3.427050   2.894324   3.934703
    29  O    6.074233   4.479993   3.660155   3.972524   4.840826
    30  O    5.685002   5.147787   2.734009   2.357518   3.925771
    31  C    7.965843   6.889192   5.142735   4.164908   5.064699
    32  H    8.467350   7.201837   5.792310   4.768886   5.347487
    33  H    8.311962   7.123790   5.455626   4.871840   5.974648
    34  H    8.282142   7.504681   5.416173   3.994442   4.881699
                   16         17         18         19         20
    16  H    0.000000
    17  H    1.775600   0.000000
    18  H    1.779548   1.780959   0.000000
    19  H    3.774448   3.091110   2.556418   0.000000
    20  H    3.749213   2.517431   3.104431   1.774780   0.000000
    21  H    4.325007   3.747428   3.767398   1.777938   1.780893
    22  H    5.264754   5.693637   5.272830   4.144155   4.671272
    23  H    5.632133   6.509906   6.050911   5.560959   6.048647
    24  H    5.289364   6.115243   5.229501   4.634084   5.608781
    25  H    4.054992   5.488502   4.489698   5.230314   6.087987
    26  H    4.527623   5.954626   5.449811   6.076538   6.510391
    27  H    2.917784   4.533505   4.011783   5.251248   5.633434
    28  S    4.288694   4.777756   5.882702   6.809937   5.860454
    29  O    3.853000   4.835856   5.604536   6.965323   6.335559
    30  O    5.083174   5.520450   6.519763   6.962729   6.020724
    31  C    5.689394   5.955397   7.273673   8.294998   7.146541
    32  H    5.530152   5.741769   7.098940   8.367379   7.229540
    33  H    6.365109   6.841944   8.030748   9.108898   8.057378
    34  H    6.245099   6.249398   7.699201   8.442897   7.130144
                   21         22         23         24         25
    21  H    0.000000
    22  H    3.073511   0.000000
    23  H    4.658530   1.781770   0.000000
    24  H    4.200021   1.780154   1.781560   0.000000
    25  H    5.313328   3.774202   3.118849   2.560733   0.000000
    26  H    5.686382   3.756415   2.528216   3.094813   1.784340
    27  H    5.259608   4.328976   3.755609   3.776818   1.780777
    28  S    6.191538   6.408098   6.232051   7.087152   6.186358
    29  O    6.613270   6.532913   6.111557   6.835488   5.441215
    30  O    5.993635   5.804278   5.557881   6.695508   6.237725
    31  C    7.707845   8.146080   7.974256   8.880536   7.909575
    32  H    7.997502   8.679506   8.576555   9.314549   8.156547
    33  H    8.477538   8.578635   8.189212   9.224766   8.151918
    34  H    7.714369   8.325311   8.297189   9.251631   8.547145
                   26         27         28         29         30
    26  H    0.000000
    27  H    1.775533   0.000000
    28  S    5.216911   4.561566   0.000000
    29  O    4.536722   3.699685   1.478938   0.000000
    30  O    5.019068   4.851411   1.482888   2.562723   0.000000
    31  C    6.909381   6.223961   1.795065   2.655064   2.666126
    32  H    7.339125   6.415488   2.374590   2.866485   3.568037
    33  H    6.990231   6.473434   2.335342   2.844208   2.937815
    34  H    7.533187   6.932666   2.375789   3.562751   2.820616
                   31         32         33         34
    31  C    0.000000
    32  H    1.093331   0.000000
    33  H    1.092751   1.798052   0.000000
    34  H    1.089270   1.810255   1.807861   0.000000
 Stoichiometry    C10H18NO3S2(2)
 Framework group  C1[X(C10H18NO3S2)]
 Deg. of freedom    96
 Full point group                 C1      NOp   1
 Largest Abelian subgroup         C1      NOp   1
 Largest concise Abelian subgroup C1      NOp   1
                         Standard orientation:                         
 ---------------------------------------------------------------------
 Center     Atomic      Atomic             Coordinates (Angstroms)
 Number     Number       Type             X           Y           Z
 ---------------------------------------------------------------------
      1          8           0       -3.665168    0.172584    1.046909
      2          7           0       -2.645580    0.051801    0.301757
      3          6           0       -2.173779   -1.262097   -0.179123
      4          6           0       -0.860250   -0.862608   -0.781151
      5          6           0       -0.592652    0.441089   -0.648484
      6          6           0        0.615975    1.120628   -1.190690
      7         16           0        1.950846    1.447347    0.040550
      8          6           0       -1.700030    1.169773    0.086628
      9          6           0       -1.286164    1.746220    1.442439
     10          6           0       -2.375770    2.246907   -0.769510
     11          6           0       -3.149960   -1.820399   -1.218214
     12          6           0       -2.031459   -2.222943    1.006005
     13          1           0       -0.204856   -1.578210   -1.271917
     14          1           0        1.073397    0.534278   -1.989034
     15          1           0        0.392586    2.120194   -1.579609
     16          1           0       -0.756917    1.000857    2.041087
     17          1           0       -0.632605    2.615576    1.313085
     18          1           0       -2.187278    2.057749    1.979146
     19          1           0       -3.289433    2.584402   -0.266553
     20          1           0       -1.719447    3.114482   -0.902164
     21          1           0       -2.645832    1.854914   -1.754736
     22          1           0       -3.240227   -1.143377   -2.076323
     23          1           0       -2.803571   -2.797620   -1.578816
     24          1           0       -4.138453   -1.943961   -0.764377
     25          1           0       -3.003760   -2.330831    1.498399
     26          1           0       -1.696368   -3.206410    0.656998
     27          1           0       -1.305599   -1.848117    1.731641
     28         16           0        2.751835   -0.535673    0.112194
     29          8           0        2.319684   -1.214291    1.353153
     30          8           0        2.497905   -1.171839   -1.203013
     31          6           0        4.508943   -0.195152    0.249584
     32          1           0        4.668235    0.415614    1.142312
     33          1           0        4.984865   -1.172503    0.360890
     34          1           0        4.832909    0.313454   -0.657541
 ---------------------------------------------------------------------
 Rotational constants (GHZ):           0.7710202           0.2775652           0.2437225
 Leave Link  202 at Mon Jun 17 21:30:47 2019, MaxMem=  8053063680 cpu:               0.0 elap:               0.0
 (Enter /data2/g16/g16/l301.exe)
 General basis read from cards:  (6D, 7F)
 Centers:      13     14     15     16     17     18     19     20     21     22
 Centers:      23     24     25     26     27     32     33     34
 6-31G
 S 1 1.00 0.000000000000
     Exponent=  4.0000000000D-01 Coefficients=  1.0000000000D+00
 P 1 1.00 0.000000000000
     Exponent=  7.5000000000D-01 Coefficients=  1.0000000000D+00
 ****
 Centers:       3      4      5      6      8      9     10     11     12     31
 6-31G
 S 1 1.00 0.000000000000
     Exponent=  8.7000000000D+00 Coefficients=  1.0000000000D+00
 P 1 1.00 0.000000000000
     Exponent=  5.0000000000D-02 Coefficients=  1.0000000000D+00
 D 1 1.00
     Exponent=  8.2000000000D-01 Coefficients=  1.0000000000D+00
 ****
 Centers:       2
 6-31G
 S 1 1.00 0.000000000000
     Exponent=  1.3700000000D+01 Coefficients=  1.0000000000D+00
 P 1 1.00 0.000000000000
     Exponent=  5.3000000000D-02 Coefficients=  1.0000000000D+00
 D 1 1.00 0.000000000000
     Exponent=  1.0150000000D+00 Coefficients=  1.0000000000D+00
 ****
 Centers:       1     29     30
 6-31G
 S 1 1.00
     Exponent=  1.6000000000D+01 Coefficients=  1.0000000000D+00
 P 1 1.00 0.000000000000
     Exponent=  6.5000000000D-02 Coefficients=  1.0000000000D+00
 D 1 1.00 0.000000000000
     Exponent=  1.1900000000D+00 Coefficients=  1.0000000000D+00
 D 1 1.00 0.000000000000
     Exponent=  1.8000000000D-01 Coefficients=  1.0000000000D+00
 ****
 Centers:       7     28
 6-31G
 S 1 1.00 0.000000000000
     Exponent=  7.5000000000D+00 Coefficients=  1.0000000000D+00
 P 1 1.00 0.000000000000
     Exponent=  4.1000000000D-02 Coefficients=  1.0000000000D+00
 D 1 1.00 0.000000000000
     Exponent=  4.7900000000D-01 Coefficients=  1.0000000000D+00
 ****
 Ernie: Thresh=  0.10000D-02 Tol=  0.10000D-05 Strict=F.
 There are   438 symmetry adapted cartesian basis functions of A   symmetry.
 There are   438 symmetry adapted basis functions of A   symmetry.
   438 basis functions,   722 primitive gaussians,   438 cartesian basis functions
    71 alpha electrons       70 beta electrons
       nuclear repulsion energy      1521.0986651669 Hartrees.
 IExCor= 1009 DFT=T Ex+Corr=PBE1PBE ExCW=0 ScaHFX=  0.250000
 ScaDFX=  0.750000  0.750000  1.000000  1.000000 ScalE2=  1.000000  1.000000
 IRadAn=      5 IRanWt=     -1 IRanGd=            0 ICorTp=0 IEmpDi=  4
 NAtoms=   34 NActive=   34 NUniq=   34 SFac= 1.00D+00 NAtFMM=   60 NAOKFM=F Big=F
 Integral buffers will be    131072 words long.
 Raffenetti 2 integral format.
 Two-electron integral symmetry is turned on.
 Leave Link  301 at Mon Jun 17 21:30:47 2019, MaxMem=  8053063680 cpu:               0.0 elap:               0.1
 (Enter /data2/g16/g16/l302.exe)
 NPDir=0 NMtPBC=     1 NCelOv=     1 NCel=       1 NClECP=     1 NCelD=      1
         NCelK=      1 NCelE2=     1 NClLst=     1 CellRange=     0.0.
 One-electron integrals computed using PRISM.
 One-electron integral symmetry used in STVInt
 NBasis=   438 RedAO= T EigKep=  6.65D-05  NBF=   438
 NBsUse=   438 1.00D-06 EigRej= -1.00D+00 NBFU=   438
 Precomputing XC quadrature grid using
 IXCGrd= 4 IRadAn=           5 IRanWt=          -1 IRanGd=           0 AccXCQ= 0.00D+00.
 Generated NRdTot=       0 NPtTot=           0 NUsed=           0 NTot=          32
 NSgBfM=   433   433   433   433   433 MxSgAt=    34 MxSgA2=    34.
 Leave Link  302 at Mon Jun 17 21:30:48 2019, MaxMem=  8053063680 cpu:               0.0 elap:               0.4
 (Enter /data2/g16/g16/l303.exe)
 DipDrv:  MaxL=1.
 Leave Link  303 at Mon Jun 17 21:30:48 2019, MaxMem=  8053063680 cpu:               0.0 elap:               0.1
 (Enter /data2/g16/g16/l401.exe)
 ExpMin= 4.10D-02 ExpMax= 2.19D+04 ExpMxC= 3.30D+03 IAcc=3 IRadAn=         5 AccDes= 0.00D+00
 Harris functional with IExCor= 1009 and IRadAn=       5 diagonalized for initial guess.
 HarFok:  IExCor= 1009 AccDes= 0.00D+00 IRadAn=         5 IDoV= 1 UseB2=F ITyADJ=14
 ICtDFT=  3500011 ScaDFX=  1.000000  1.000000  1.000000  1.000000
 FoFCou: FMM=F IPFlag=           0 FMFlag=      100000 FMFlg1=           0
         NFxFlg=           0 DoJE=T BraDBF=F KetDBF=T FulRan=T
         wScrn=  0.000000 ICntrl=       500 IOpCl=  0 I1Cent=   200000004 NGrid=           0
         NMat0=    1 NMatS0=      1 NMatT0=    0 NMatD0=    1 NMtDS0=    0 NMtDT0=    0
 Petite list used in FoFCou.
 Harris En= -1467.69847380365    
 JPrj=0 DoOrth=F DoCkMO=F.
 Initial guess <Sx>= 0.0000 <Sy>= 0.0000 <Sz>= 0.5000 <S**2>= 0.7500 S= 0.5000
 Leave Link  401 at Mon Jun 17 21:30:50 2019, MaxMem=  8053063680 cpu:               0.0 elap:               1.5
 (Enter /data2/g16/g16/l502.exe)
 Integral symmetry usage will be decided dynamically.
 UHF open shell SCF:
 Using DIIS extrapolation, IDIIS=  1040.
 NGot=  8053063680 LenX=  8052670277 LenY=  8052477992
 Requested convergence on RMS density matrix=1.00D-08 within 128 cycles.
 Requested convergence on MAX density matrix=1.00D-06.
 Requested convergence on             energy=1.00D-06.
 No special actions if energy rises.
 Fock matrices will be formed incrementally for  20 cycles.

 Cycle   1  Pass 1  IDiag  1:
 FoFJK:  IHMeth= 1 ICntrl=       0 DoSepK=F KAlg= 0 I1Cent=           0 FoldK=F
 IRaf= 840000000 NMat=       1 IRICut=       1 DoRegI=T DoRafI=F ISym2E= 0 IDoP0=0 IntGTp=1.
 FoFCou: FMM=F IPFlag=           0 FMFlag=      100000 FMFlg1=           0
         NFxFlg=           0 DoJE=F BraDBF=F KetDBF=F FulRan=T
         wScrn=  0.000000 ICntrl=         0 IOpCl=  1 I1Cent=           0 NGrid=           0
         NMat0=    1 NMatS0=      1 NMatT0=    0 NMatD0=    1 NMtDS0=    0 NMtDT0=    0
 Symmetry not used in FoFCou.
 E= -1466.93564361233    
 DIIS: error= 2.54D-02 at cycle   1 NSaved=   1.
 NSaved= 1 IEnMin= 1 EnMin= -1466.93564361233     IErMin= 1 ErrMin= 2.54D-02
 ErrMax= 2.54D-02  0.00D+00 EMaxC= 1.00D-01 BMatC= 2.97D+00 BMatP= 2.97D+00
 IDIUse=3 WtCom= 7.46D-01 WtEn= 2.54D-01
 Coeff-Com:  0.100D+01
 Coeff-En:   0.100D+01
 Coeff:      0.100D+01
 Gap=     0.226 Goal=   None    Shift=    0.000
 Gap=     0.363 Goal=   None    Shift=    0.000
 GapD=    0.226 DampG=1.000 DampE=0.500 DampFc=0.5000 IDamp=-1.
 Damping current iteration by 5.00D-01
 RMSDP=4.75D-03 MaxDP=4.12D-01              OVMax= 3.12D-01

 Cycle   2  Pass 1  IDiag  1:
 RMSU=  2.37D-03    CP:  9.92D-01
 E= -1467.06221506331     Delta-E=       -0.126571450979 Rises=F Damp=T
 DIIS: error= 1.04D-02 at cycle   2 NSaved=   2.
 NSaved= 2 IEnMin= 2 EnMin= -1467.06221506331     IErMin= 2 ErrMin= 1.04D-02
 ErrMax= 1.04D-02  0.00D+00 EMaxC= 1.00D-01 BMatC= 5.22D-01 BMatP= 2.97D+00
 IDIUse=3 WtCom= 8.96D-01 WtEn= 1.04D-01
 Coeff-Com:  0.226D+00 0.774D+00
 Coeff-En:   0.395D+00 0.605D+00
 Coeff:      0.244D+00 0.756D+00
 Gap=     0.129 Goal=   None    Shift=    0.000
 Gap=     0.185 Goal=   None    Shift=    0.000
 RMSDP=1.68D-03 MaxDP=1.19D-01 DE=-1.27D-01 OVMax= 2.88D-01

 Cycle   3  Pass 1  IDiag  1:
 RMSU=  1.39D-03    CP:  9.82D-01  6.10D-01
 E= -1467.46621926468     Delta-E=       -0.404004201372 Rises=F Damp=F
 DIIS: error= 9.52D-03 at cycle   3 NSaved=   3.
 NSaved= 3 IEnMin= 3 EnMin= -1467.46621926468     IErMin= 3 ErrMin= 9.52D-03
 ErrMax= 9.52D-03  0.00D+00 EMaxC= 1.00D-01 BMatC= 3.54D-01 BMatP= 5.22D-01
 IDIUse=3 WtCom= 9.05D-01 WtEn= 9.52D-02
 Coeff-Com:  0.530D-01 0.446D+00 0.501D+00
 Coeff-En:   0.000D+00 0.000D+00 0.100D+01
 Coeff:      0.479D-01 0.403D+00 0.549D+00
 Gap=     0.146 Goal=   None    Shift=    0.000
 Gap=     0.223 Goal=   None    Shift=    0.000
 RMSDP=9.47D-04 MaxDP=6.54D-02 DE=-4.04D-01 OVMax= 1.08D-01

 Cycle   4  Pass 1  IDiag  1:
 RMSU=  6.27D-04    CP:  9.87D-01  7.39D-01  5.42D-01
 E= -1467.53756601545     Delta-E=       -0.071346750764 Rises=F Damp=F
 DIIS: error= 2.90D-03 at cycle   4 NSaved=   4.
 NSaved= 4 IEnMin= 4 EnMin= -1467.53756601545     IErMin= 4 ErrMin= 2.90D-03
 ErrMax= 2.90D-03  0.00D+00 EMaxC= 1.00D-01 BMatC= 4.67D-02 BMatP= 3.54D-01
 IDIUse=3 WtCom= 9.71D-01 WtEn= 2.90D-02
 Coeff-Com: -0.116D-01 0.660D-01 0.285D+00 0.660D+00
 Coeff-En:   0.000D+00 0.000D+00 0.108D+00 0.892D+00
 Coeff:     -0.113D-01 0.641D-01 0.280D+00 0.667D+00
 Gap=     0.145 Goal=   None    Shift=    0.000
 Gap=     0.202 Goal=   None    Shift=    0.000
 RMSDP=3.19D-04 MaxDP=1.84D-02 DE=-7.13D-02 OVMax= 3.33D-02

 Cycle   5  Pass 1  IDiag  1:
 RMSU=  2.00D-04    CP:  9.86D-01  7.23D-01  6.56D-01  7.00D-01
 E= -1467.54733482280     Delta-E=       -0.009768807356 Rises=F Damp=F
 DIIS: error= 7.83D-04 at cycle   5 NSaved=   5.
 NSaved= 5 IEnMin= 5 EnMin= -1467.54733482280     IErMin= 5 ErrMin= 7.83D-04
 ErrMax= 7.83D-04  0.00D+00 EMaxC= 1.00D-01 BMatC= 3.96D-03 BMatP= 4.67D-02
 IDIUse=3 WtCom= 9.92D-01 WtEn= 7.83D-03
 Coeff-Com: -0.849D-02 0.148D-01 0.130D+00 0.370D+00 0.494D+00
 Coeff-En:   0.000D+00 0.000D+00 0.000D+00 0.000D+00 0.100D+01
 Coeff:     -0.843D-02 0.147D-01 0.129D+00 0.367D+00 0.498D+00
 Gap=     0.146 Goal=   None    Shift=    0.000
 Gap=     0.205 Goal=   None    Shift=    0.000
 RMSDP=1.09D-04 MaxDP=5.50D-03 DE=-9.77D-03 OVMax= 1.25D-02

 Cycle   6  Pass 1  IDiag  1:
 RMSU=  6.89D-05    CP:  9.85D-01  7.26D-01  6.52D-01  7.57D-01  6.22D-01
 E= -1467.54819477798     Delta-E=       -0.000859955180 Rises=F Damp=F
 DIIS: error= 2.36D-04 at cycle   6 NSaved=   6.
 NSaved= 6 IEnMin= 6 EnMin= -1467.54819477798     IErMin= 6 ErrMin= 2.36D-04
 ErrMax= 2.36D-04  0.00D+00 EMaxC= 1.00D-01 BMatC= 4.09D-04 BMatP= 3.96D-03
 IDIUse=3 WtCom= 9.98D-01 WtEn= 2.36D-03
 Coeff-Com: -0.283D-02 0.106D-02 0.364D-01 0.116D+00 0.274D+00 0.576D+00
 Coeff-En:   0.000D+00 0.000D+00 0.000D+00 0.000D+00 0.449D-01 0.955D+00
 Coeff:     -0.282D-02 0.106D-02 0.363D-01 0.116D+00 0.273D+00 0.577D+00
 Gap=     0.148 Goal=   None    Shift=    0.000
 Gap=     0.205 Goal=   None    Shift=    0.000
 RMSDP=3.58D-05 MaxDP=2.15D-03 DE=-8.60D-04 OVMax= 5.20D-03

 Cycle   7  Pass 1  IDiag  1:
 RMSU=  2.55D-05    CP:  9.85D-01  7.22D-01  6.58D-01  7.59D-01  6.70D-01
                    CP:  6.99D-01
 E= -1467.54828975459     Delta-E=       -0.000094976604 Rises=F Damp=F
 DIIS: error= 1.24D-04 at cycle   7 NSaved=   7.
 NSaved= 7 IEnMin= 7 EnMin= -1467.54828975459     IErMin= 7 ErrMin= 1.24D-04
 ErrMax= 1.24D-04  0.00D+00 EMaxC= 1.00D-01 BMatC= 6.82D-05 BMatP= 4.09D-04
 IDIUse=3 WtCom= 9.99D-01 WtEn= 1.24D-03
 Coeff-Com: -0.222D-04-0.246D-02-0.267D-02-0.135D-03 0.602D-01 0.330D+00
 Coeff-Com:  0.615D+00
 Coeff-En:   0.000D+00 0.000D+00 0.000D+00 0.000D+00 0.000D+00 0.701D-01
 Coeff-En:   0.930D+00
 Coeff:     -0.222D-04-0.246D-02-0.267D-02-0.135D-03 0.601D-01 0.329D+00
 Coeff:      0.616D+00
 Gap=     0.148 Goal=   None    Shift=    0.000
 Gap=     0.206 Goal=   None    Shift=    0.000
 RMSDP=1.49D-05 MaxDP=9.15D-04 DE=-9.50D-05 OVMax= 1.16D-03

 Cycle   8  Pass 1  IDiag  1:
 RMSU=  1.04D-05    CP:  9.85D-01  7.23D-01  6.58D-01  7.58D-01  7.04D-01
                    CP:  7.97D-01  8.11D-01
 E= -1467.54830622313     Delta-E=       -0.000016468539 Rises=F Damp=F
 DIIS: error= 3.05D-05 at cycle   8 NSaved=   8.
 NSaved= 8 IEnMin= 8 EnMin= -1467.54830622313     IErMin= 8 ErrMin= 3.05D-05
 ErrMax= 3.05D-05  0.00D+00 EMaxC= 1.00D-01 BMatC= 5.03D-06 BMatP= 6.82D-05
 IDIUse=1 WtCom= 1.00D+00 WtEn= 0.00D+00
 Coeff-Com:  0.420D-03-0.114D-02-0.541D-02-0.145D-01-0.157D-01 0.675D-01
 Coeff-Com:  0.219D+00 0.749D+00
 Coeff:      0.420D-03-0.114D-02-0.541D-02-0.145D-01-0.157D-01 0.675D-01
 Coeff:      0.219D+00 0.749D+00
 Gap=     0.148 Goal=   None    Shift=    0.000
 Gap=     0.205 Goal=   None    Shift=    0.000
 RMSDP=5.08D-06 MaxDP=5.37D-04 DE=-1.65D-05 OVMax= 1.26D-03

 Cycle   9  Pass 1  IDiag  1:
 RMSU=  4.20D-06    CP:  9.85D-01  7.23D-01  6.57D-01  7.61D-01  7.03D-01
                    CP:  8.26D-01  8.49D-01  9.25D-01
 E= -1467.54830773478     Delta-E=       -0.000001511655 Rises=F Damp=F
 DIIS: error= 3.05D-05 at cycle   9 NSaved=   9.
 NSaved= 9 IEnMin= 9 EnMin= -1467.54830773478     IErMin= 9 ErrMin= 3.05D-05
 ErrMax= 3.05D-05  0.00D+00 EMaxC= 1.00D-01 BMatC= 3.21D-06 BMatP= 5.03D-06
 IDIUse=1 WtCom= 1.00D+00 WtEn= 0.00D+00
 Coeff-Com:  0.328D-03-0.344D-03-0.301D-02-0.973D-02-0.260D-01-0.269D-01
 Coeff-Com: -0.935D-02 0.492D+00 0.583D+00
 Coeff:      0.328D-03-0.344D-03-0.301D-02-0.973D-02-0.260D-01-0.269D-01
 Coeff:     -0.935D-02 0.492D+00 0.583D+00
 Gap=     0.148 Goal=   None    Shift=    0.000
 Gap=     0.205 Goal=   None    Shift=    0.000
 RMSDP=3.43D-06 MaxDP=2.41D-04 DE=-1.51D-06 OVMax= 2.76D-04

 Cycle  10  Pass 1  IDiag  1:
 RMSU=  2.32D-06    CP:  9.85D-01  7.23D-01  6.57D-01  7.60D-01  7.08D-01
                    CP:  8.44D-01  8.92D-01  1.06D+00  8.56D-01
 E= -1467.54830846229     Delta-E=       -0.000000727507 Rises=F Damp=F
 DIIS: error= 1.36D-05 at cycle  10 NSaved=  10.
 NSaved=10 IEnMin=10 EnMin= -1467.54830846229     IErMin=10 ErrMin= 1.36D-05
 ErrMax= 1.36D-05  0.00D+00 EMaxC= 1.00D-01 BMatC= 5.30D-07 BMatP= 3.21D-06
 IDIUse=1 WtCom= 1.00D+00 WtEn= 0.00D+00
 Coeff-Com:  0.101D-03 0.952D-04-0.153D-03-0.162D-02-0.122D-01-0.321D-01
 Coeff-Com: -0.723D-01 0.112D+00 0.337D+00 0.670D+00
 Coeff:      0.101D-03 0.952D-04-0.153D-03-0.162D-02-0.122D-01-0.321D-01
 Coeff:     -0.723D-01 0.112D+00 0.337D+00 0.670D+00
 Gap=     0.148 Goal=   None    Shift=    0.000
 Gap=     0.206 Goal=   None    Shift=    0.000
 RMSDP=1.64D-06 MaxDP=1.14D-04 DE=-7.28D-07 OVMax= 3.04D-04

 Cycle  11  Pass 1  IDiag  1:
 RMSU=  9.89D-07    CP:  9.85D-01  7.23D-01  6.57D-01  7.60D-01  7.08D-01
                    CP:  8.51D-01  9.00D-01  1.16D+00  9.81D-01  8.57D-01
 E= -1467.54830862238     Delta-E=       -0.000000160097 Rises=F Damp=F
 DIIS: error= 6.53D-06 at cycle  11 NSaved=  11.
 NSaved=11 IEnMin=11 EnMin= -1467.54830862238     IErMin=11 ErrMin= 6.53D-06
 ErrMax= 6.53D-06  0.00D+00 EMaxC= 1.00D-01 BMatC= 1.08D-07 BMatP= 5.30D-07
 IDIUse=1 WtCom= 1.00D+00 WtEn= 0.00D+00
 Coeff-Com:  0.250D-05 0.800D-04 0.454D-03 0.869D-03-0.210D-02-0.105D-01
 Coeff-Com: -0.371D-01-0.202D-01 0.569D-01 0.362D+00 0.649D+00
 Coeff:      0.250D-05 0.800D-04 0.454D-03 0.869D-03-0.210D-02-0.105D-01
 Coeff:     -0.371D-01-0.202D-01 0.569D-01 0.362D+00 0.649D+00
 Gap=     0.148 Goal=   None    Shift=    0.000
 Gap=     0.206 Goal=   None    Shift=    0.000
 RMSDP=6.55D-07 MaxDP=4.67D-05 DE=-1.60D-07 OVMax= 1.20D-04

 Cycle  12  Pass 1  IDiag  1:
 RMSU=  4.44D-07    CP:  9.85D-01  7.23D-01  6.57D-01  7.60D-01  7.07D-01
                    CP:  8.53D-01  8.97D-01  1.17D+00  1.03D+00  9.99D-01
                    CP:  8.08D-01
 E= -1467.54830864941     Delta-E=       -0.000000027028 Rises=F Damp=F
 DIIS: error= 2.64D-06 at cycle  12 NSaved=  12.
 NSaved=12 IEnMin=12 EnMin= -1467.54830864941     IErMin=12 ErrMin= 2.64D-06
 ErrMax= 2.64D-06  0.00D+00 EMaxC= 1.00D-01 BMatC= 2.86D-08 BMatP= 1.08D-07
 IDIUse=1 WtCom= 1.00D+00 WtEn= 0.00D+00
 Coeff-Com: -0.121D-04 0.251D-04 0.314D-03 0.808D-03 0.608D-03-0.133D-02
 Coeff-Com: -0.124D-01-0.336D-01-0.307D-01 0.111D+00 0.412D+00 0.553D+00
 Coeff:     -0.121D-04 0.251D-04 0.314D-03 0.808D-03 0.608D-03-0.133D-02
 Coeff:     -0.124D-01-0.336D-01-0.307D-01 0.111D+00 0.412D+00 0.553D+00
 Gap=     0.148 Goal=   None    Shift=    0.000
 Gap=     0.206 Goal=   None    Shift=    0.000
 RMSDP=3.11D-07 MaxDP=2.26D-05 DE=-2.70D-08 OVMax= 2.74D-05

 Cycle  13  Pass 1  IDiag  1:
 RMSU=  1.94D-07    CP:  9.85D-01  7.23D-01  6.57D-01  7.60D-01  7.08D-01
                    CP:  8.54D-01  8.98D-01  1.18D+00  1.05D+00  1.06D+00
                    CP:  9.25D-01  8.39D-01
 E= -1467.54830865569     Delta-E=       -0.000000006273 Rises=F Damp=F
 DIIS: error= 1.00D-06 at cycle  13 NSaved=  13.
 NSaved=13 IEnMin=13 EnMin= -1467.54830865569     IErMin=13 ErrMin= 1.00D-06
 ErrMax= 1.00D-06  0.00D+00 EMaxC= 1.00D-01 BMatC= 4.34D-09 BMatP= 2.86D-08
 IDIUse=1 WtCom= 1.00D+00 WtEn= 0.00D+00
 Coeff-Com: -0.389D-05-0.103D-04 0.613D-04 0.209D-03 0.915D-03 0.275D-02
 Coeff-Com:  0.378D-02-0.100D-01-0.339D-01-0.339D-01 0.642D-01 0.308D+00
 Coeff-Com:  0.698D+00
 Coeff:     -0.389D-05-0.103D-04 0.613D-04 0.209D-03 0.915D-03 0.275D-02
 Coeff:      0.378D-02-0.100D-01-0.339D-01-0.339D-01 0.642D-01 0.308D+00
 Coeff:      0.698D+00
 Gap=     0.148 Goal=   None    Shift=    0.000
 Gap=     0.206 Goal=   None    Shift=    0.000
 RMSDP=1.28D-07 MaxDP=1.26D-05 DE=-6.27D-09 OVMax= 2.16D-05

 Cycle  14  Pass 1  IDiag  1:
 RMSU=  1.06D-07    CP:  9.85D-01  7.23D-01  6.57D-01  7.60D-01  7.08D-01
                    CP:  8.54D-01  8.98D-01  1.18D+00  1.05D+00  1.08D+00
                    CP:  9.60D-01  8.64D-01  8.40D-01
 E= -1467.54830865675     Delta-E=       -0.000000001069 Rises=F Damp=F
 DIIS: error= 5.31D-07 at cycle  14 NSaved=  14.
 NSaved=14 IEnMin=14 EnMin= -1467.54830865675     IErMin=14 ErrMin= 5.31D-07
 ErrMax= 5.31D-07  0.00D+00 EMaxC= 1.00D-01 BMatC= 8.87D-10 BMatP= 4.34D-09
 IDIUse=1 WtCom= 1.00D+00 WtEn= 0.00D+00
 Coeff-Com:  0.469D-06-0.118D-04-0.285D-04-0.455D-04 0.346D-03 0.166D-02
 Coeff-Com:  0.417D-02 0.154D-02-0.123D-01-0.399D-01-0.542D-01 0.310D-01
 Coeff-Com:  0.371D+00 0.696D+00
 Coeff:      0.469D-06-0.118D-04-0.285D-04-0.455D-04 0.346D-03 0.166D-02
 Coeff:      0.417D-02 0.154D-02-0.123D-01-0.399D-01-0.542D-01 0.310D-01
 Coeff:      0.371D+00 0.696D+00
 Gap=     0.148 Goal=   None    Shift=    0.000
 Gap=     0.206 Goal=   None    Shift=    0.000
 RMSDP=7.39D-08 MaxDP=4.79D-06 DE=-1.07D-09 OVMax= 6.07D-06

 Cycle  15  Pass 1  IDiag  1:
 RMSU=  3.46D-08    CP:  9.85D-01  7.23D-01  6.57D-01  7.60D-01  7.07D-01
                    CP:  8.54D-01  8.98D-01  1.18D+00  1.05D+00  1.09D+00
                    CP:  9.84D-01  9.47D-01  9.81D-01  7.91D-01
 E= -1467.54830865705     Delta-E=       -0.000000000296 Rises=F Damp=F
 DIIS: error= 1.26D-07 at cycle  15 NSaved=  15.
 NSaved=15 IEnMin=15 EnMin= -1467.54830865705     IErMin=15 ErrMin= 1.26D-07
 ErrMax= 1.26D-07  0.00D+00 EMaxC= 1.00D-01 BMatC= 5.90D-11 BMatP= 8.87D-10
 IDIUse=1 WtCom= 1.00D+00 WtEn= 0.00D+00
 Coeff-Com:  0.697D-06-0.209D-05-0.202D-04-0.481D-04-0.986D-05 0.217D-03
 Coeff-Com:  0.878D-03 0.213D-02 0.298D-03-0.803D-02-0.279D-01-0.351D-01
 Coeff-Com:  0.381D-01 0.225D+00 0.805D+00
 Coeff:      0.697D-06-0.209D-05-0.202D-04-0.481D-04-0.986D-05 0.217D-03
 Coeff:      0.878D-03 0.213D-02 0.298D-03-0.803D-02-0.279D-01-0.351D-01
 Coeff:      0.381D-01 0.225D+00 0.805D+00
 Gap=     0.148 Goal=   None    Shift=    0.000
 Gap=     0.206 Goal=   None    Shift=    0.000
 RMSDP=2.00D-08 MaxDP=1.23D-06 DE=-2.96D-10 OVMax= 1.84D-06

 Cycle  16  Pass 1  IDiag  1:
 RMSU=  1.37D-08    CP:  9.85D-01  7.23D-01  6.57D-01  7.60D-01  7.07D-01
                    CP:  8.54D-01  8.98D-01  1.18D+00  1.05D+00  1.09D+00
                    CP:  9.83D-01  9.54D-01  1.02D+00  8.79D-01  9.02D-01
 E= -1467.54830865713     Delta-E=       -0.000000000081 Rises=F Damp=F
 DIIS: error= 4.37D-08 at cycle  16 NSaved=  16.
 NSaved=16 IEnMin=16 EnMin= -1467.54830865713     IErMin=16 ErrMin= 4.37D-08
 ErrMax= 4.37D-08  0.00D+00 EMaxC= 1.00D-01 BMatC= 1.11D-11 BMatP= 5.90D-11
 IDIUse=1 WtCom= 1.00D+00 WtEn= 0.00D+00
 Coeff-Com:  0.751D-07 0.106D-05-0.414D-05-0.114D-04-0.534D-04-0.147D-03
 Coeff-Com: -0.250D-03 0.636D-03 0.180D-02 0.266D-02-0.332D-02-0.193D-01
 Coeff-Com: -0.343D-01-0.165D-01 0.323D+00 0.746D+00
 Coeff:      0.751D-07 0.106D-05-0.414D-05-0.114D-04-0.534D-04-0.147D-03
 Coeff:     -0.250D-03 0.636D-03 0.180D-02 0.266D-02-0.332D-02-0.193D-01
 Coeff:     -0.343D-01-0.165D-01 0.323D+00 0.746D+00
 Gap=     0.148 Goal=   None    Shift=    0.000
 Gap=     0.206 Goal=   None    Shift=    0.000
 RMSDP=7.94D-09 MaxDP=4.32D-07 DE=-8.14D-11 OVMax= 7.14D-07

 SCF Done:  E(UPBE1PBE) =  -1467.54830866     A.U. after   16 cycles
            NFock= 16  Conv=0.79D-08     -V/T= 2.0052
 <Sx>= 0.0000 <Sy>= 0.0000 <Sz>= 0.5000 <S**2>= 0.7550 S= 0.5025
 <L.S>=  0.00000000000    
 KE= 1.459887476021D+03 PE=-6.497606650843D+03 EE= 2.049072200998D+03
 Annihilation of the first spin contaminant:
 S**2 before annihilation     0.7550,   after     0.7500
 Leave Link  502 at Mon Jun 17 21:33:26 2019, MaxMem=  8053063680 cpu:               0.0 elap:             156.0
 (Enter /data2/g16/g16/l601.exe)
 Copying SCF densities to generalized density rwf, IOpCl= 1 IROHF=0.

 **********************************************************************

            Population analysis using the SCF Density.

 **********************************************************************

 Orbital symmetries:
 Alpha Orbitals:
       Occupied  (A) (A) (A) (A) (A) (A) (A) (A) (A) (A) (A) (A)
                 (A) (A) (A) (A) (A) (A) (A) (A) (A) (A) (A) (A)
                 (A) (A) (A) (A) (A) (A) (A) (A) (A) (A) (A) (A)
                 (A) (A) (A) (A) (A) (A) (A) (A) (A) (A) (A) (A)
                 (A) (A) (A) (A) (A) (A) (A) (A) (A) (A) (A) (A)
                 (A) (A) (A) (A) (A) (A) (A) (A) (A) (A) (A)
       Virtual   (A) (A) (A) (A) (A) (A) (A) (A) (A) (A) (A) (A)
                 (A) (A) (A) (A) (A) (A) (A) (A) (A) (A) (A) (A)
                 (A) (A) (A) (A) (A) (A) (A) (A) (A) (A) (A) (A)
                 (A) (A) (A) (A) (A) (A) (A) (A) (A) (A) (A) (A)
                 (A) (A) (A) (A) (A) (A) (A) (A) (A) (A) (A) (A)
                 (A) (A) (A) (A) (A) (A) (A) (A) (A) (A) (A) (A)
                 (A) (A) (A) (A) (A) (A) (A) (A) (A) (A) (A) (A)
                 (A) (A) (A) (A) (A) (A) (A) (A) (A) (A) (A) (A)
                 (A) (A) (A) (A) (A) (A) (A) (A) (A) (A) (A) (A)
                 (A) (A) (A) (A) (A) (A) (A) (A) (A) (A) (A) (A)
                 (A) (A) (A) (A) (A) (A) (A) (A) (A) (A) (A) (A)
                 (A) (A) (A) (A) (A) (A) (A) (A) (A) (A) (A) (A)
                 (A) (A) (A) (A) (A) (A) (A) (A) (A) (A) (A) (A)
                 (A) (A) (A) (A) (A) (A) (A) (A) (A) (A) (A) (A)
                 (A) (A) (A) (A) (A) (A) (A) (A) (A) (A) (A) (A)
                 (A) (A) (A) (A) (A) (A) (A) (A) (A) (A) (A) (A)
                 (A) (A) (A) (A) (A) (A) (A) (A) (A) (A) (A) (A)
                 (A) (A) (A) (A) (A) (A) (A) (A) (A) (A) (A) (A)
                 (A) (A) (A) (A) (A) (A) (A) (A) (A) (A) (A) (A)
                 (A) (A) (A) (A) (A) (A) (A) (A) (A) (A) (A) (A)
                 (A) (A) (A) (A) (A) (A) (A) (A) (A) (A) (A) (A)
                 (A) (A) (A) (A) (A) (A) (A) (A) (A) (A) (A) (A)
                 (A) (A) (A) (A) (A) (A) (A) (A) (A) (A) (A) (A)
                 (A) (A) (A) (A) (A) (A) (A) (A) (A) (A) (A) (A)
                 (A) (A) (A) (A) (A) (A) (A) (A) (A) (A) (A) (A)
                 (A) (A) (A) (A) (A) (A) (A) (A) (A) (A) (A) (A)
                 (A) (A) (A) (A) (A) (A) (A) (A) (A) (A) (A) (A)
                 (A) (A) (A) (A) (A) (A) (A) (A) (A) (A) (A) (A)
                 (A) (A) (A) (A) (A) (A) (A) (A) (A) (A) (A) (A)
                 (A) (A) (A) (A) (A) (A) (A) (A) (A) (A) (A) (A)
                 (A) (A) (A) (A) (A) (A) (A)
 Beta  Orbitals:
       Occupied  (A) (A) (A) (A) (A) (A) (A) (A) (A) (A) (A) (A)
                 (A) (A) (A) (A) (A) (A) (A) (A) (A) (A) (A) (A)
                 (A) (A) (A) (A) (A) (A) (A) (A) (A) (A) (A) (A)
                 (A) (A) (A) (A) (A) (A) (A) (A) (A) (A) (A) (A)
                 (A) (A) (A) (A) (A) (A) (A) (A) (A) (A) (A) (A)
                 (A) (A) (A) (A) (A) (A) (A) (A) (A) (A)
       Virtual   (A) (A) (A) (A) (A) (A) (A) (A) (A) (A) (A) (A)
                 (A) (A) (A) (A) (A) (A) (A) (A) (A) (A) (A) (A)
                 (A) (A) (A) (A) (A) (A) (A) (A) (A) (A) (A) (A)
                 (A) (A) (A) (A) (A) (A) (A) (A) (A) (A) (A) (A)
                 (A) (A) (A) (A) (A) (A) (A) (A) (A) (A) (A) (A)
                 (A) (A) (A) (A) (A) (A) (A) (A) (A) (A) (A) (A)
                 (A) (A) (A) (A) (A) (A) (A) (A) (A) (A) (A) (A)
                 (A) (A) (A) (A) (A) (A) (A) (A) (A) (A) (A) (A)
                 (A) (A) (A) (A) (A) (A) (A) (A) (A) (A) (A) (A)
                 (A) (A) (A) (A) (A) (A) (A) (A) (A) (A) (A) (A)
                 (A) (A) (A) (A) (A) (A) (A) (A) (A) (A) (A) (A)
                 (A) (A) (A) (A) (A) (A) (A) (A) (A) (A) (A) (A)
                 (A) (A) (A) (A) (A) (A) (A) (A) (A) (A) (A) (A)
                 (A) (A) (A) (A) (A) (A) (A) (A) (A) (A) (A) (A)
                 (A) (A) (A) (A) (A) (A) (A) (A) (A) (A) (A) (A)
                 (A) (A) (A) (A) (A) (A) (A) (A) (A) (A) (A) (A)
                 (A) (A) (A) (A) (A) (A) (A) (A) (A) (A) (A) (A)
                 (A) (A) (A) (A) (A) (A) (A) (A) (A) (A) (A) (A)
                 (A) (A) (A) (A) (A) (A) (A) (A) (A) (A) (A) (A)
                 (A) (A) (A) (A) (A) (A) (A) (A) (A) (A) (A) (A)
                 (A) (A) (A) (A) (A) (A) (A) (A) (A) (A) (A) (A)
                 (A) (A) (A) (A) (A) (A) (A) (A) (A) (A) (A) (A)
                 (A) (A) (A) (A) (A) (A) (A) (A) (A) (A) (A) (A)
                 (A) (A) (A) (A) (A) (A) (A) (A) (A) (A) (A) (A)
                 (A) (A) (A) (A) (A) (A) (A) (A) (A) (A) (A) (A)
                 (A) (A) (A) (A) (A) (A) (A) (A) (A) (A) (A) (A)
                 (A) (A) (A) (A) (A) (A) (A) (A) (A) (A) (A) (A)
                 (A) (A) (A) (A) (A) (A) (A) (A) (A) (A) (A) (A)
                 (A) (A) (A) (A) (A) (A) (A) (A) (A) (A) (A) (A)
                 (A) (A) (A) (A) (A) (A) (A) (A) (A) (A) (A) (A)
                 (A) (A) (A) (A) (A) (A) (A) (A)
 The electronic state is 2-A.
 Alpha  occ. eigenvalues --  -89.28800 -89.08190 -19.24750 -19.24219 -19.22652
 Alpha  occ. eigenvalues --  -14.48519 -10.29728 -10.29699 -10.29125 -10.28722
 Alpha  occ. eigenvalues --  -10.26125 -10.24855 -10.23334 -10.22868 -10.22554
 Alpha  occ. eigenvalues --  -10.22309  -8.22120  -8.04432  -6.15842  -6.15798
 Alpha  occ. eigenvalues --   -6.15684  -5.98273  -5.97897  -5.97173  -1.14724
 Alpha  occ. eigenvalues --   -1.13395  -1.04484  -0.93279  -0.85923  -0.84025
 Alpha  occ. eigenvalues --   -0.82242  -0.77236  -0.74917  -0.72102  -0.71230
 Alpha  occ. eigenvalues --   -0.70588  -0.64468  -0.62453  -0.58961  -0.56425
 Alpha  occ. eigenvalues --   -0.53160  -0.51830  -0.51307  -0.50749  -0.50166
 Alpha  occ. eigenvalues --   -0.48511  -0.47399  -0.46359  -0.46174  -0.45122
 Alpha  occ. eigenvalues --   -0.44648  -0.43948  -0.42776  -0.42427  -0.41659
 Alpha  occ. eigenvalues --   -0.40500  -0.40096  -0.39022  -0.38853  -0.36498
 Alpha  occ. eigenvalues --   -0.36358  -0.36190  -0.35748  -0.35656  -0.34534
 Alpha  occ. eigenvalues --   -0.33588  -0.31777  -0.28313  -0.27237  -0.26895
 Alpha  occ. eigenvalues --   -0.20238
 Alpha virt. eigenvalues --   -0.05452  -0.02447   0.00472   0.01074   0.02634
 Alpha virt. eigenvalues --    0.03407   0.03687   0.04589   0.04821   0.04989
 Alpha virt. eigenvalues --    0.05445   0.05801   0.06158   0.06289   0.06850
 Alpha virt. eigenvalues --    0.07845   0.08238   0.08378   0.09041   0.09317
 Alpha virt. eigenvalues --    0.09412   0.09641   0.10368   0.10755   0.11018
 Alpha virt. eigenvalues --    0.11378   0.11819   0.12679   0.13020   0.13696
 Alpha virt. eigenvalues --    0.14030   0.14408   0.14703   0.15007   0.15563
 Alpha virt. eigenvalues --    0.15978   0.16660   0.16763   0.16939   0.17753
 Alpha virt. eigenvalues --    0.18369   0.18715   0.19252   0.19435   0.19645
 Alpha virt. eigenvalues --    0.20017   0.20839   0.21239   0.22050   0.22533
 Alpha virt. eigenvalues --    0.23180   0.23234   0.23955   0.24667   0.25441
 Alpha virt. eigenvalues --    0.26128   0.26327   0.26756   0.27123   0.27724
 Alpha virt. eigenvalues --    0.27923   0.28381   0.29085   0.29213   0.29785
 Alpha virt. eigenvalues --    0.30399   0.30628   0.31472   0.31735   0.31775
 Alpha virt. eigenvalues --    0.32215   0.32955   0.33509   0.34567   0.34983
 Alpha virt. eigenvalues --    0.35573   0.36807   0.37717   0.38148   0.40447
 Alpha virt. eigenvalues --    0.41705   0.41931   0.42185   0.43533   0.44190
 Alpha virt. eigenvalues --    0.46089   0.47087   0.47578   0.48118   0.50211
 Alpha virt. eigenvalues --    0.50679   0.50909   0.51803   0.51951   0.52894
 Alpha virt. eigenvalues --    0.53716   0.54070   0.54637   0.55467   0.56161
 Alpha virt. eigenvalues --    0.57133   0.58135   0.58260   0.59852   0.60563
 Alpha virt. eigenvalues --    0.60980   0.61912   0.62658   0.63156   0.63730
 Alpha virt. eigenvalues --    0.64208   0.64866   0.65324   0.65948   0.66677
 Alpha virt. eigenvalues --    0.67769   0.68144   0.68724   0.70097   0.71057
 Alpha virt. eigenvalues --    0.72083   0.72849   0.73163   0.74010   0.74223
 Alpha virt. eigenvalues --    0.74752   0.75881   0.76453   0.77196   0.78339
 Alpha virt. eigenvalues --    0.79025   0.79765   0.80789   0.81871   0.82178
 Alpha virt. eigenvalues --    0.82573   0.83226   0.83802   0.84879   0.85652
 Alpha virt. eigenvalues --    0.86075   0.87079   0.87938   0.88369   0.88686
 Alpha virt. eigenvalues --    0.89214   0.89828   0.90419   0.90941   0.91167
 Alpha virt. eigenvalues --    0.91515   0.92956   0.94162   0.94817   0.95437
 Alpha virt. eigenvalues --    0.96403   0.97366   0.97912   0.98115   0.99621
 Alpha virt. eigenvalues --    0.99731   1.01905   1.02226   1.03451   1.04522
 Alpha virt. eigenvalues --    1.04615   1.07696   1.08608   1.09146   1.11932
 Alpha virt. eigenvalues --    1.12450   1.14650   1.14974   1.15756   1.16658
 Alpha virt. eigenvalues --    1.18714   1.20197   1.21595   1.22069   1.23578
 Alpha virt. eigenvalues --    1.25444   1.29212   1.30306   1.31694   1.31761
 Alpha virt. eigenvalues --    1.36541   1.37805   1.39606   1.40151   1.41451
 Alpha virt. eigenvalues --    1.44329   1.45459   1.45879   1.48012   1.48780
 Alpha virt. eigenvalues --    1.49121   1.50479   1.51611   1.53044   1.56046
 Alpha virt. eigenvalues --    1.57613   1.59539   1.62492   1.63125   1.63265
 Alpha virt. eigenvalues --    1.65445   1.65828   1.67071   1.68153   1.68453
 Alpha virt. eigenvalues --    1.69533   1.71004   1.72192   1.73205   1.75027
 Alpha virt. eigenvalues --    1.75663   1.76332   1.77694   1.78694   1.79208
 Alpha virt. eigenvalues --    1.79747   1.80562   1.80974   1.81821   1.82559
 Alpha virt. eigenvalues --    1.83804   1.84378   1.85119   1.85872   1.87094
 Alpha virt. eigenvalues --    1.88121   1.89735   1.90936   1.93042   1.94211
 Alpha virt. eigenvalues --    1.95338   1.95874   1.97929   1.98228   1.98818
 Alpha virt. eigenvalues --    1.99483   2.02296   2.03111   2.04306   2.05601
 Alpha virt. eigenvalues --    2.06398   2.07230   2.10445   2.12459   2.13439
 Alpha virt. eigenvalues --    2.14817   2.16281   2.16753   2.23518   2.26010
 Alpha virt. eigenvalues --    2.27911   2.29182   2.31797   2.32926   2.34304
 Alpha virt. eigenvalues --    2.36799   2.38755   2.39412   2.40028   2.41063
 Alpha virt. eigenvalues --    2.42624   2.44902   2.47350   2.48676   2.49732
 Alpha virt. eigenvalues --    2.53680   2.54560   2.54826   2.58152   2.58916
 Alpha virt. eigenvalues --    2.60541   2.63937   2.65272   2.66040   2.67365
 Alpha virt. eigenvalues --    2.70666   2.75153   2.75581   2.77492   2.80777
 Alpha virt. eigenvalues --    2.82457   2.82702   2.83238   2.83375   2.84213
 Alpha virt. eigenvalues --    2.84446   2.85367   2.86581   2.86994   2.88120
 Alpha virt. eigenvalues --    2.88524   2.89601   2.90966   2.93193   2.93511
 Alpha virt. eigenvalues --    2.94620   2.95582   2.96847   2.97820   2.98388
 Alpha virt. eigenvalues --    2.99230   3.02569   3.03400   3.03875   3.06734
 Alpha virt. eigenvalues --    3.08068   3.15648   3.18117   3.19617   3.20349
 Alpha virt. eigenvalues --    3.26174   3.28221   3.29716   3.31233   3.31443
 Alpha virt. eigenvalues --    3.34400   3.35849   3.37409   3.38363   3.41426
 Alpha virt. eigenvalues --    3.41884   3.42949   3.45192   3.48160   3.49795
 Alpha virt. eigenvalues --    3.53774   3.56359   3.59658   3.63520   3.64668
 Alpha virt. eigenvalues --    3.76515   3.93975   4.47158   4.57419   4.62176
 Alpha virt. eigenvalues --    4.64296   4.72438   4.73945   4.74767   4.86515
 Alpha virt. eigenvalues --    4.91271   5.03057   5.44470   5.81794   5.84487
 Alpha virt. eigenvalues --    6.07851  22.21689  22.63386  58.49224  58.49258
 Alpha virt. eigenvalues --   58.50382  58.50651  58.50880  58.55574  58.56034
 Alpha virt. eigenvalues --   58.56367  58.56641  58.56827  95.61713 106.32259
 Alpha virt. eigenvalues --  106.33255 106.39060
  Beta  occ. eigenvalues --  -89.28800 -89.08190 -19.24751 -19.24219 -19.21217
  Beta  occ. eigenvalues --  -14.47333 -10.29730 -10.29699 -10.29188 -10.28784
  Beta  occ. eigenvalues --  -10.26123 -10.24852 -10.23283 -10.22816 -10.22508
  Beta  occ. eigenvalues --  -10.22261  -8.22120  -8.04432  -6.15842  -6.15798
  Beta  occ. eigenvalues --   -6.15684  -5.98273  -5.97897  -5.97173  -1.14724
  Beta  occ. eigenvalues --   -1.10763  -1.04484  -0.92321  -0.85730  -0.83921
  Beta  occ. eigenvalues --   -0.82109  -0.77037  -0.73849  -0.71851  -0.71101
  Beta  occ. eigenvalues --   -0.70137  -0.64415  -0.62325  -0.58582  -0.55917
  Beta  occ. eigenvalues --   -0.53069  -0.51824  -0.51017  -0.50414  -0.48338
  Beta  occ. eigenvalues --   -0.47515  -0.47171  -0.46341  -0.46109  -0.44975
  Beta  occ. eigenvalues --   -0.44252  -0.43793  -0.42500  -0.41645  -0.41189
  Beta  occ. eigenvalues --   -0.40201  -0.40034  -0.38691  -0.37659  -0.36318
  Beta  occ. eigenvalues --   -0.36131  -0.35724  -0.35694  -0.34506  -0.33585
  Beta  occ. eigenvalues --   -0.32665  -0.31772  -0.28233  -0.26717  -0.26008
  Beta virt. eigenvalues --   -0.05453  -0.03895  -0.02412   0.00485   0.01079
  Beta virt. eigenvalues --    0.02656   0.03435   0.03724   0.04629   0.04912
  Beta virt. eigenvalues --    0.05020   0.05469   0.05843   0.06186   0.06314
  Beta virt. eigenvalues --    0.06917   0.07863   0.08297   0.08448   0.09067
  Beta virt. eigenvalues --    0.09357   0.09536   0.09699   0.10412   0.10803
  Beta virt. eigenvalues --    0.11039   0.11438   0.11916   0.12795   0.13106
  Beta virt. eigenvalues --    0.13755   0.14091   0.14448   0.14788   0.15064
  Beta virt. eigenvalues --    0.15898   0.16068   0.16707   0.16982   0.17217
  Beta virt. eigenvalues --    0.17889   0.18418   0.18813   0.19373   0.19614
  Beta virt. eigenvalues --    0.19770   0.20228   0.20991   0.21356   0.22146
  Beta virt. eigenvalues --    0.22708   0.23238   0.23317   0.24112   0.24967
  Beta virt. eigenvalues --    0.25584   0.26235   0.26416   0.26865   0.27230
  Beta virt. eigenvalues --    0.27771   0.28054   0.28520   0.29131   0.29373
  Beta virt. eigenvalues --    0.30152   0.30577   0.31005   0.31601   0.31844
  Beta virt. eigenvalues --    0.32096   0.32514   0.33045   0.33587   0.34637
  Beta virt. eigenvalues --    0.35098   0.35776   0.36844   0.37794   0.38237
  Beta virt. eigenvalues --    0.40487   0.41794   0.41984   0.42606   0.43567
  Beta virt. eigenvalues --    0.44345   0.46160   0.47215   0.47613   0.48156
  Beta virt. eigenvalues --    0.50316   0.50820   0.51013   0.51914   0.52029
  Beta virt. eigenvalues --    0.52937   0.53826   0.54171   0.54807   0.55531
  Beta virt. eigenvalues --    0.56239   0.57226   0.58237   0.58414   0.59951
  Beta virt. eigenvalues --    0.60677   0.61111   0.61942   0.62698   0.63326
  Beta virt. eigenvalues --    0.63888   0.64280   0.64921   0.65493   0.66097
  Beta virt. eigenvalues --    0.66745   0.67822   0.68457   0.68872   0.70338
  Beta virt. eigenvalues --    0.71302   0.72146   0.72962   0.73224   0.74089
  Beta virt. eigenvalues --    0.74457   0.74788   0.76004   0.76507   0.77275
  Beta virt. eigenvalues --    0.78546   0.79114   0.79928   0.80908   0.82065
  Beta virt. eigenvalues --    0.82251   0.82672   0.83295   0.83865   0.84943
  Beta virt. eigenvalues --    0.85730   0.86160   0.87189   0.87970   0.88433
  Beta virt. eigenvalues --    0.88724   0.89251   0.89891   0.90534   0.91034
  Beta virt. eigenvalues --    0.91233   0.91705   0.93102   0.94376   0.94910
  Beta virt. eigenvalues --    0.95506   0.96557   0.97515   0.98020   0.99384
  Beta virt. eigenvalues --    0.99689   0.99887   1.02114   1.02294   1.03580
  Beta virt. eigenvalues --    1.04601   1.04814   1.07751   1.08648   1.09320
  Beta virt. eigenvalues --    1.12338   1.12623   1.14674   1.15038   1.15923
  Beta virt. eigenvalues --    1.16947   1.19025   1.20552   1.22090   1.23175
  Beta virt. eigenvalues --    1.23806   1.25891   1.29700   1.30897   1.31828
  Beta virt. eigenvalues --    1.32443   1.36913   1.38134   1.39664   1.40233
  Beta virt. eigenvalues --    1.41514   1.44364   1.45653   1.46133   1.48180
  Beta virt. eigenvalues --    1.48906   1.49219   1.50535   1.51716   1.53074
  Beta virt. eigenvalues --    1.56225   1.57701   1.59653   1.62527   1.63146
  Beta virt. eigenvalues --    1.63292   1.65779   1.66025   1.67655   1.68327
  Beta virt. eigenvalues --    1.68472   1.69803   1.71064   1.72239   1.73326
  Beta virt. eigenvalues --    1.75116   1.75728   1.76458   1.77729   1.78750
  Beta virt. eigenvalues --    1.79255   1.79824   1.80649   1.81016   1.81885
  Beta virt. eigenvalues --    1.82712   1.83944   1.84451   1.85215   1.86030
  Beta virt. eigenvalues --    1.87230   1.88231   1.89843   1.91170   1.93192
  Beta virt. eigenvalues --    1.94321   1.95349   1.95900   1.98135   1.98396
  Beta virt. eigenvalues --    1.99082   1.99751   2.02600   2.03407   2.04497
  Beta virt. eigenvalues --    2.05953   2.06849   2.07660   2.10793   2.12882
  Beta virt. eigenvalues --    2.13580   2.15134   2.16327   2.17144   2.24337
  Beta virt. eigenvalues --    2.26062   2.28027   2.30326   2.31941   2.33039
  Beta virt. eigenvalues --    2.34428   2.36889   2.38760   2.39414   2.40211
  Beta virt. eigenvalues --    2.41380   2.42888   2.45007   2.47521   2.49189
  Beta virt. eigenvalues --    2.49894   2.53895   2.54909   2.55755   2.58689
  Beta virt. eigenvalues --    2.59029   2.60603   2.64033   2.65379   2.66112
  Beta virt. eigenvalues --    2.68170   2.70831   2.75314   2.75968   2.77682
  Beta virt. eigenvalues --    2.81003   2.82471   2.82733   2.83264   2.84218
  Beta virt. eigenvalues --    2.84375   2.85425   2.85945   2.86971   2.87332
  Beta virt. eigenvalues --    2.88308   2.89689   2.89845   2.91234   2.93248
  Beta virt. eigenvalues --    2.94654   2.95389   2.95894   2.96966   2.98065
  Beta virt. eigenvalues --    2.98444   2.99662   3.02778   3.03889   3.04334
  Beta virt. eigenvalues --    3.06836   3.08179   3.16040   3.19103   3.19826
  Beta virt. eigenvalues --    3.23701   3.26177   3.28223   3.30202   3.31273
  Beta virt. eigenvalues --    3.31529   3.34456   3.35859   3.37453   3.38381
  Beta virt. eigenvalues --    3.41552   3.41980   3.43000   3.45233   3.48285
  Beta virt. eigenvalues --    3.49905   3.53946   3.56397   3.59702   3.63629
  Beta virt. eigenvalues --    3.64685   3.76534   3.95681   4.47230   4.57480
  Beta virt. eigenvalues --    4.62176   4.64415   4.72513   4.74046   4.74874
  Beta virt. eigenvalues --    4.86643   4.91310   5.03061   5.46350   5.81804
  Beta virt. eigenvalues --    5.84487   6.10364  22.21690  22.63386  58.49223
  Beta virt. eigenvalues --   58.49257  58.50364  58.50616  58.50829  58.55620
  Beta virt. eigenvalues --   58.56080  58.56408  58.56682  58.56830  95.62639
  Beta virt. eigenvalues --  106.32261 106.33255 106.40203
          Condensed to atoms (all electrons):
               1          2          3          4          5          6
     1  O    8.663495  -0.009898  -0.086367  -0.001605   0.036707  -0.003843
     2  N   -0.009898   7.339299   0.090986  -0.065694  -0.021080   0.015860
     3  C   -0.086367   0.090986   5.432941   0.244593  -0.096468   0.018172
     4  C   -0.001605  -0.065694   0.244593   5.179572   0.605852  -0.034789
     5  C    0.036707  -0.021080  -0.096468   0.605852   5.387105   0.193997
     6  C   -0.003843   0.015860   0.018172  -0.034789   0.193997   5.228586
     7  S   -0.000753   0.004702   0.000385  -0.002401  -0.127385   0.259150
     8  C   -0.072466   0.069608  -0.140638  -0.052013   0.219642  -0.074295
     9  C   -0.016922  -0.089508   0.006621  -0.003361  -0.062880   0.008236
    10  C   -0.005800  -0.084063   0.017579  -0.009482  -0.081199   0.005585
    11  C   -0.001812  -0.102264   0.313066  -0.052875  -0.011648  -0.002282
    12  C   -0.008691  -0.091997   0.312328  -0.074051   0.000496  -0.001723
    13  H   -0.000759   0.004732  -0.036320   0.406255  -0.050314  -0.001482
    14  H    0.000031  -0.001409   0.002378   0.022306  -0.081294   0.420107
    15  H    0.000143  -0.003595  -0.000038   0.005696  -0.063642   0.407717
    16  H   -0.001605   0.013738  -0.004475   0.004407   0.003269  -0.000905
    17  H   -0.000400   0.006999  -0.000334   0.000970  -0.006993   0.002167
    18  H    0.007418  -0.025427   0.001851  -0.000861   0.008218  -0.000951
    19  H    0.007983  -0.024233  -0.001391  -0.001311   0.018265  -0.001297
    20  H   -0.000674   0.004577  -0.000777   0.001483  -0.002445   0.001832
    21  H   -0.000073   0.006548   0.002112   0.000219  -0.005434   0.003967
    22  H    0.000056   0.004446  -0.052994  -0.007284   0.008252  -0.000690
    23  H   -0.000885   0.007136  -0.046751   0.000954   0.001760  -0.000047
    24  H    0.007352  -0.023741  -0.034071   0.015619  -0.002661   0.000067
    25  H    0.007402  -0.030643  -0.024964   0.015115  -0.001167   0.000016
    26  H   -0.000180   0.009329  -0.047585  -0.002903   0.000069  -0.000029
    27  H   -0.000590   0.010625  -0.061599  -0.003229   0.005245  -0.000498
    28  S   -0.000250   0.000518  -0.001474  -0.031391  -0.003925  -0.004559
    29  O    0.000323   0.002865  -0.002156   0.031884   0.008353   0.004677
    30  O    0.000177  -0.002030  -0.004578   0.024816   0.015830  -0.024529
    31  C    0.000014  -0.000039  -0.000578   0.003483   0.003752  -0.000335
    32  H   -0.000000  -0.000005   0.000031  -0.000147  -0.000374   0.000137
    33  H   -0.000000   0.000003   0.000021   0.000015   0.000038   0.000205
    34  H   -0.000000   0.000001  -0.000026  -0.000539   0.000178  -0.000422
               7          8          9         10         11         12
     1  O   -0.000753  -0.072466  -0.016922  -0.005800  -0.001812  -0.008691
     2  N    0.004702   0.069608  -0.089508  -0.084063  -0.102264  -0.091997
     3  C    0.000385  -0.140638   0.006621   0.017579   0.313066   0.312328
     4  C   -0.002401  -0.052013  -0.003361  -0.009482  -0.052875  -0.074051
     5  C   -0.127385   0.219642  -0.062880  -0.081199  -0.011648   0.000496
     6  C    0.259150  -0.074295   0.008236   0.005585  -0.002282  -0.001723
     7  S   15.865090  -0.004192   0.003902  -0.000508  -0.000234   0.000892
     8  C   -0.004192   5.422664   0.321404   0.325468   0.018547   0.017621
     9  C    0.003902   0.321404   5.007782  -0.084501  -0.005416   0.004732
    10  C   -0.000508   0.325468  -0.084501   5.034131   0.004927  -0.005874
    11  C   -0.000234   0.018547  -0.005416   0.004927   5.034173  -0.080980
    12  C    0.000892   0.017621   0.004732  -0.005874  -0.080980   5.018990
    13  H    0.000009   0.012118  -0.000899  -0.001502  -0.000526   0.002625
    14  H   -0.042050   0.002692   0.000052  -0.001858  -0.000121  -0.000035
    15  H   -0.041287   0.007722  -0.000879   0.005739   0.000312  -0.000068
    16  H    0.000975  -0.064364   0.412680   0.009175   0.000177  -0.001531
    17  H    0.001041  -0.034614   0.400004  -0.004058   0.000137  -0.000129
    18  H   -0.000005  -0.032384   0.412837  -0.003878  -0.000095   0.000074
    19  H    0.000010  -0.040605  -0.002935   0.415033  -0.000343   0.000126
    20  H   -0.000109  -0.038789  -0.003893   0.401212  -0.000073   0.000159
    21  H   -0.001113  -0.056235   0.008335   0.410113  -0.000832  -0.000106
    22  H    0.000013  -0.001148   0.000062  -0.001009   0.410280   0.008293
    23  H    0.000007  -0.001247   0.000175  -0.000078   0.405465  -0.002920
    24  H   -0.000012   0.000435   0.000013  -0.000326   0.411362  -0.003970
    25  H   -0.000032  -0.001961   0.000236  -0.000067  -0.004434   0.410365
    26  H   -0.000004  -0.000687  -0.000134   0.000156  -0.002141   0.406665
    27  H   -0.000052  -0.000268  -0.001648   0.000099   0.009101   0.413091
    28  S    0.310853   0.001762  -0.003179  -0.000205  -0.000946   0.002001
    29  O   -0.075219  -0.006212  -0.000984   0.000067   0.000320  -0.005970
    30  O   -0.083733  -0.002314   0.000692  -0.000067   0.001162   0.000396
    31  C   -0.051997  -0.000868   0.000176   0.000045   0.000060  -0.000182
    32  H   -0.000581   0.000118  -0.000062  -0.000002  -0.000001  -0.000006
    33  H    0.001482  -0.000037  -0.000002   0.000000  -0.000000  -0.000005
    34  H    0.002680   0.000116   0.000004  -0.000000  -0.000000   0.000008
              13         14         15         16         17         18
     1  O   -0.000759   0.000031   0.000143  -0.001605  -0.000400   0.007418
     2  N    0.004732  -0.001409  -0.003595   0.013738   0.006999  -0.025427
     3  C   -0.036320   0.002378  -0.000038  -0.004475  -0.000334   0.001851
     4  C    0.406255   0.022306   0.005696   0.004407   0.000970  -0.000861
     5  C   -0.050314  -0.081294  -0.063642   0.003269  -0.006993   0.008218
     6  C   -0.001482   0.420107   0.407717  -0.000905   0.002167  -0.000951
     7  S    0.000009  -0.042050  -0.041287   0.000975   0.001041  -0.000005
     8  C    0.012118   0.002692   0.007722  -0.064364  -0.034614  -0.032384
     9  C   -0.000899   0.000052  -0.000879   0.412680   0.400004   0.412837
    10  C   -0.001502  -0.001858   0.005739   0.009175  -0.004058  -0.003878
    11  C   -0.000526  -0.000121   0.000312   0.000177   0.000137  -0.000095
    12  C    0.002625  -0.000035  -0.000068  -0.001531  -0.000129   0.000074
    13  H    0.508432   0.002115  -0.000026  -0.000042  -0.000001   0.000004
    14  H    0.002115   0.489224  -0.014212  -0.000033  -0.000017   0.000001
    15  H   -0.000026  -0.014212   0.530579   0.000087  -0.000046   0.000010
    16  H   -0.000042  -0.000033   0.000087   0.537169  -0.019152  -0.014995
    17  H   -0.000001  -0.000017  -0.000046  -0.019152   0.566313  -0.021057
    18  H    0.000004   0.000001   0.000010  -0.014995  -0.021057   0.521342
    19  H    0.000005   0.000003  -0.000033  -0.000006  -0.000251   0.001939
    20  H    0.000002   0.000021  -0.000033   0.000100   0.001230  -0.000160
    21  H   -0.000015  -0.000014  -0.000258  -0.000140   0.000071   0.000030
    22  H    0.000060   0.000004   0.000002  -0.000001   0.000000   0.000000
    23  H    0.000521   0.000001   0.000000  -0.000000  -0.000000   0.000000
    24  H    0.000019   0.000000  -0.000000  -0.000001   0.000000  -0.000002
    25  H   -0.000043  -0.000000   0.000000  -0.000005  -0.000000  -0.000009
    26  H    0.000174  -0.000001   0.000000   0.000008  -0.000000  -0.000000
    27  H   -0.000107  -0.000002   0.000000   0.000314   0.000010  -0.000014
    28  S    0.003553  -0.014406   0.002857  -0.000843  -0.000993   0.000384
    29  O   -0.000350   0.001051  -0.000796  -0.000043   0.000187  -0.000013
    30  O   -0.001064   0.011561  -0.001252   0.000061   0.000019  -0.000010
    31  C   -0.000118   0.000458  -0.000044   0.000032   0.000049  -0.000003
    32  H    0.000000   0.000005  -0.000001  -0.000000  -0.000000   0.000000
    33  H    0.000000  -0.000011   0.000000   0.000000   0.000000  -0.000000
    34  H    0.000001   0.000024  -0.000000   0.000000  -0.000000   0.000000
              19         20         21         22         23         24
     1  O    0.007983  -0.000674  -0.000073   0.000056  -0.000885   0.007352
     2  N   -0.024233   0.004577   0.006548   0.004446   0.007136  -0.023741
     3  C   -0.001391  -0.000777   0.002112  -0.052994  -0.046751  -0.034071
     4  C   -0.001311   0.001483   0.000219  -0.007284   0.000954   0.015619
[...]
    29  O   -0.511891  -0.000001
    30  O   -0.568661  -0.000026
    31  C    0.149920  -0.000010
 Electronic spatial extent (au):  <R**2>=           4765.6016
 Charge=             -0.0000 electrons
 Dipole moment (field-independent basis, Debye):
    X=              4.1584    Y=              1.8395    Z=             -2.2616  Tot=              5.0784
 Quadrupole moment (field-independent basis, Debye-Ang):
   XX=           -107.0924   YY=           -109.0330   ZZ=           -116.4288
   XY=              5.2640   XZ=              7.1608   YZ=             -0.6324
 Traceless Quadrupole moment (field-independent basis, Debye-Ang):
   XX=              3.7590   YY=              1.8184   ZZ=             -5.5774
   XY=              5.2640   XZ=              7.1608   YZ=             -0.6324
 Octapole moment (field-independent basis, Debye-Ang**2):
  XXX=            184.1177  YYY=             -3.7652  ZZZ=              0.1567  XYY=            -13.8460
  XXY=             -8.5492  XXZ=            -10.0360  XZZ=              0.9792  YZZ=              5.9572
  YYZ=             -2.4636  XYZ=              0.5107
 Hexadecapole moment (field-independent basis, Debye-Ang**3):
 XXXX=          -3935.0239 YYYY=          -1372.0804 ZZZZ=           -689.8480 XXXY=            -21.6158
 XXXZ=            128.2215 YYYX=            -17.0828 YYYZ=              0.9826 ZZZX=            -10.2789
 ZZZY=             -2.5622 XXYY=           -931.3170 XXZZ=           -860.6025 YYZZ=           -352.0944
 XXYZ=             -4.0572 YYXZ=             -4.2949 ZZXY=             14.7037
 N-N= 1.521098665167D+03 E-N=-6.497606633333D+03  KE= 1.459887476021D+03
                          Isotropic Fermi Contact Couplings
        Atom                 a.u.       MegaHertz       Gauss      10(-4) cm-1
     1  O(17)              0.08655     -52.46543     -18.72097     -17.50058
     2  N(14)              0.10925      35.29967      12.59580      11.77470
     3  C(13)             -0.01411     -15.86630      -5.66149      -5.29243
     4  C(13)             -0.00007      -0.07316      -0.02611      -0.02440
     5  C(13)             -0.00022      -0.24316      -0.08676      -0.08111
     6  C(13)             -0.00069      -0.77741      -0.27740      -0.25932
     7  S(33)             -0.00003      -0.00882      -0.00315      -0.00294
     8  C(13)             -0.01434     -16.11942      -5.75181      -5.37686
     9  C(13)              0.01184      13.31383       4.75071       4.44102
    10  C(13)              0.01799      20.22694       7.21748       6.74698
    11  C(13)              0.01776      19.96403       7.12366       6.65928
    12  C(13)              0.01222      13.73868       4.90230       4.58273
    13  H(1)              -0.00029      -1.28900      -0.45995      -0.42996
    14  H(1)               0.00003       0.12034       0.04294       0.04014
    15  H(1)               0.00001       0.02818       0.01005       0.00940
    16  H(1)              -0.00040      -1.76615      -0.63020      -0.58912
    17  H(1)               0.00024       1.06380       0.37959       0.35485
    18  H(1)              -0.00052      -2.32647      -0.83014      -0.77603
    19  H(1)              -0.00048      -2.15825      -0.77012      -0.71991
    20  H(1)               0.00039       1.74643       0.62317       0.58255
    21  H(1)              -0.00033      -1.45642      -0.51969      -0.48581
    22  H(1)              -0.00033      -1.47486      -0.52627      -0.49196
    23  H(1)               0.00037       1.63941       0.58498       0.54685
    24  H(1)              -0.00046      -2.07635      -0.74089      -0.69259
    25  H(1)              -0.00051      -2.26373      -0.80776      -0.75510
    26  H(1)               0.00027       1.20581       0.43026       0.40222
    27  H(1)              -0.00040      -1.79994      -0.64226      -0.60039
    28  S(33)              0.00000       0.00065       0.00023       0.00022
    29  O(17)             -0.00001       0.00365       0.00130       0.00122
    30  O(17)             -0.00003       0.01882       0.00671       0.00628
    31  C(13)             -0.00001      -0.00686      -0.00245      -0.00229
    32  H(1)               0.00000       0.00112       0.00040       0.00037
    33  H(1)              -0.00000      -0.00018      -0.00007      -0.00006
    34  H(1)              -0.00000      -0.00059      -0.00021      -0.00020
 --------------------------------------------------------
       Center         ----  Spin Dipole Couplings  ----
                      3XX-RR        3YY-RR        3ZZ-RR
 --------------------------------------------------------
     1   Atom       -0.146853     -0.885826      1.032679
     2   Atom       -0.117118     -0.551375      0.668493
     3   Atom       -0.005417      0.012203     -0.006786
     4   Atom        0.004719     -0.005105      0.000386
     5   Atom        0.008400     -0.007184     -0.001217
     6   Atom        0.002322     -0.001460     -0.000862
     7   Atom        0.002160     -0.001233     -0.000927
     8   Atom        0.003638      0.004974     -0.008612
     9   Atom       -0.010926     -0.001118      0.012043
    10   Atom       -0.010214      0.019872     -0.009658
    11   Atom       -0.001377      0.002712     -0.001335
    12   Atom       -0.016844      0.015266      0.001578
    13   Atom        0.001797     -0.001044     -0.000754
    14   Atom        0.001461     -0.001208     -0.000253
    15   Atom        0.001228     -0.000683     -0.000546
    16   Atom        0.003385     -0.003390      0.000005
    17   Atom        0.000441      0.001900     -0.002341
    18   Atom       -0.002125      0.004462     -0.002337
    19   Atom       -0.004854      0.009680     -0.004826
    20   Atom       -0.001243      0.003879     -0.002636
    21   Atom       -0.005628      0.000547      0.005081
    22   Atom       -0.005830     -0.002139      0.007969
    23   Atom       -0.002722      0.003615     -0.000892
    24   Atom       -0.001762      0.003836     -0.002074
    25   Atom       -0.004944      0.010103     -0.005159
    26   Atom       -0.002843      0.005384     -0.002541
    27   Atom       -0.000445      0.001858     -0.001413
    28   Atom        0.001420     -0.000724     -0.000696
    29   Atom        0.001463     -0.000686     -0.000777
    30   Atom        0.001034     -0.000588     -0.000445
    31   Atom        0.000661     -0.000329     -0.000332
    32   Atom        0.000620     -0.000311     -0.000309
    33   Atom        0.000519     -0.000249     -0.000269
    34   Atom        0.000552     -0.000285     -0.000266
 --------------------------------------------------------
                        XY            XZ            YZ
 --------------------------------------------------------
     1   Atom       -0.320635      1.391681     -0.496405
     2   Atom       -0.185114      0.789084     -0.296312
     3   Atom       -0.009032     -0.001075      0.006663
     4   Atom       -0.006258     -0.007421      0.002980
     5   Atom        0.002657     -0.007588     -0.001224
     6   Atom        0.001009     -0.001815     -0.000414
     7   Atom        0.000839      0.000450      0.000155
     8   Atom        0.013113     -0.000772     -0.002565
     9   Atom        0.010140      0.007613      0.021301
    10   Atom       -0.010478      0.003927     -0.017553
    11   Atom        0.015068      0.013776      0.018715
    12   Atom       -0.003469     -0.001523     -0.022841
    13   Atom       -0.002821     -0.002834      0.001630
    14   Atom        0.000294     -0.001635     -0.000187
    15   Atom        0.001543     -0.001640     -0.000912
    16   Atom        0.003569      0.007018      0.002030
    17   Atom        0.005269      0.000573      0.001158
    18   Atom        0.006052      0.002211      0.007948
    19   Atom       -0.001700     -0.001121     -0.005162
    20   Atom        0.003303     -0.001016     -0.003060
    21   Atom        0.001166      0.000117     -0.007477
    22   Atom        0.000493      0.002695      0.005403
    23   Atom       -0.000995     -0.000137      0.004608
    24   Atom        0.005475      0.001965      0.006923
    25   Atom       -0.001459     -0.001340     -0.005269
    26   Atom       -0.003428     -0.000674      0.000317
    27   Atom       -0.005874      0.004751     -0.004379
    28   Atom       -0.000214     -0.000166      0.000025
    29   Atom       -0.000556      0.000341     -0.000082
    30   Atom       -0.000410     -0.000558      0.000135
    31   Atom       -0.000043     -0.000045      0.000003
    32   Atom        0.000035      0.000069      0.000003
    33   Atom       -0.000125     -0.000021      0.000003
    34   Atom        0.000020     -0.000131     -0.000002
 --------------------------------------------------------


 ---------------------------------------------------------------------------------
              Anisotropic Spin Dipole Couplings in Principal Axis System
 ---------------------------------------------------------------------------------

       Atom             a.u.   MegaHertz   Gauss  10(-4) cm-1        Axes

              Baa    -1.0693    77.370    27.608    25.808  0.8187 -0.0993 -0.5655
     1 O(17)  Bbb    -1.0032    72.590    25.902    24.213  0.1920  0.9756  0.1066
              Bcc     2.0724  -149.960   -53.510   -50.021  0.5411 -0.1959  0.8178
 
              Baa    -0.6202   -23.919    -8.535    -7.979  0.1805  0.9769  0.1141
     2 N(14)  Bbb    -0.6056   -23.358    -8.335    -7.791  0.8369 -0.0916 -0.5396
              Bcc     1.2258    47.277    16.870    15.770  0.5167 -0.1929  0.8341
 
              Baa    -0.0105    -1.404    -0.501    -0.468  0.6610  0.4417 -0.6066
     3 C(13)  Bbb    -0.0073    -0.980    -0.350    -0.327  0.6579  0.0478  0.7516
              Bcc     0.0178     2.384     0.851     0.795 -0.3610  0.8959  0.2589
 
              Baa    -0.0082    -1.103    -0.393    -0.368  0.4877  0.8646  0.1212
     4 C(13)  Bbb    -0.0046    -0.624    -0.223    -0.208  0.4229 -0.3554  0.8336
              Bcc     0.0129     1.727     0.616     0.576  0.7637 -0.3553 -0.5390
 
              Baa    -0.0076    -1.023    -0.365    -0.341 -0.1691  0.9855 -0.0120
     5 C(13)  Bbb    -0.0054    -0.721    -0.257    -0.240  0.4671  0.0908  0.8795
              Bcc     0.0130     1.744     0.622     0.582  0.8679  0.1431 -0.4757
 
              Baa    -0.0017    -0.233    -0.083    -0.078 -0.4076  0.7774 -0.4790
     6 C(13)  Bbb    -0.0017    -0.222    -0.079    -0.074  0.2068  0.5895  0.7809
              Bcc     0.0034     0.455     0.162     0.152  0.8894  0.2193 -0.4010
 
              Baa    -0.0014    -0.059    -0.021    -0.020 -0.2132  0.9711 -0.1075
     7 S(33)  Bbb    -0.0010    -0.041    -0.014    -0.014 -0.1603  0.0738  0.9843
              Bcc     0.0024     0.099     0.035     0.033  0.9638  0.2271  0.1399
 
              Baa    -0.0100    -1.346    -0.480    -0.449 -0.4697  0.5311  0.7052
     8 C(13)  Bbb    -0.0076    -1.023    -0.365    -0.341  0.5593 -0.4390  0.7032
              Bcc     0.0177     2.369     0.845     0.790  0.6830  0.7247 -0.0908
 
              Baa    -0.0193    -2.595    -0.926    -0.866 -0.5615  0.7416 -0.3671
     9 C(13)  Bbb    -0.0119    -1.602    -0.572    -0.534  0.7793  0.3247 -0.5359
              Bcc     0.0313     4.197     1.498     1.400  0.2782  0.5870  0.7603
 
              Baa    -0.0180    -2.412    -0.861    -0.805  0.1680  0.4526  0.8757
    10 C(13)  Bbb    -0.0131    -1.756    -0.626    -0.586  0.9506  0.1608 -0.2655
              Bcc     0.0311     4.168     1.487     1.390 -0.2610  0.8771 -0.4033
 
              Baa    -0.0181    -2.434    -0.869    -0.812 -0.0325 -0.6544  0.7554
    11 C(13)  Bbb    -0.0139    -1.860    -0.664    -0.620  0.8524 -0.4128 -0.3209
              Bcc     0.0320     4.294     1.532     1.432  0.5218  0.6335  0.5713
 
              Baa    -0.0195    -2.623    -0.936    -0.875  0.7809  0.3952  0.4837
    12 C(13)  Bbb    -0.0128    -1.717    -0.613    -0.573 -0.6235  0.4457  0.6423
              Bcc     0.0323     4.340     1.548     1.448 -0.0382  0.8032 -0.5945
 
              Baa    -0.0028    -1.498    -0.535    -0.500  0.6144  0.7465  0.2554
    13 H(1)   Bbb    -0.0025    -1.329    -0.474    -0.443  0.2380 -0.4840  0.8421
              Bcc     0.0053     2.827     1.009     0.943  0.7522 -0.4566 -0.4751
 
              Baa    -0.0012    -0.667    -0.238    -0.222  0.3245  0.6778  0.6598
    14 H(1)   Bbb    -0.0012    -0.658    -0.235    -0.220 -0.4113  0.7292 -0.5468
              Bcc     0.0025     1.325     0.473     0.442  0.8518  0.0939 -0.5154
 
              Baa    -0.0015    -0.823    -0.294    -0.274 -0.5116  0.8573 -0.0576
    15 H(1)   Bbb    -0.0015    -0.812    -0.290    -0.271  0.3706  0.2806  0.8854
              Bcc     0.0031     1.634     0.583     0.545  0.7752  0.4316 -0.4613
 
              Baa    -0.0058    -3.102    -1.107    -1.035  0.6476 -0.4232 -0.6336
    16 H(1)   Bbb    -0.0043    -2.306    -0.823    -0.769  0.0646  0.8590 -0.5078
              Bcc     0.0101     5.407     1.929     1.804  0.7592  0.2879  0.5837
 
              Baa    -0.0042    -2.247    -0.802    -0.750  0.7261 -0.6616  0.1873
    17 H(1)   Bbb    -0.0025    -1.308    -0.467    -0.436 -0.2315  0.0213  0.9726
              Bcc     0.0067     3.556     1.269     1.186  0.6474  0.7496  0.1376
 
              Baa    -0.0082    -4.354    -1.553    -1.452  0.3589 -0.6145  0.7025
    18 H(1)   Bbb    -0.0043    -2.277    -0.813    -0.760  0.8443 -0.1072 -0.5251
              Bcc     0.0124     6.631     2.366     2.212  0.3980  0.7816  0.4803
 
              Baa    -0.0075    -3.985    -1.422    -1.329  0.5309  0.2921  0.7955
    19 H(1)   Bbb    -0.0040    -2.113    -0.754    -0.705  0.8438 -0.0947 -0.5283
              Bcc     0.0114     6.099     2.176     2.034 -0.0789  0.9517 -0.2968
 
              Baa    -0.0039    -2.083    -0.743    -0.695 -0.1980  0.4303  0.8807
    20 H(1)   Bbb    -0.0027    -1.441    -0.514    -0.481  0.8939 -0.2895  0.3424
              Bcc     0.0066     3.524     1.257     1.176  0.4023  0.8550 -0.3273
 
              Baa    -0.0064    -3.405    -1.215    -1.136  0.8082 -0.4895 -0.3275
    21 H(1)   Bbb    -0.0043    -2.277    -0.812    -0.760  0.5878  0.6354  0.5008
              Bcc     0.0106     5.682     2.027     1.895 -0.0370 -0.5973  0.8012
 
              Baa    -0.0064    -3.441    -1.228    -1.148  0.9429  0.2129 -0.2560
    22 H(1)   Bbb    -0.0043    -2.291    -0.817    -0.764 -0.2925  0.8972 -0.3310
              Bcc     0.0107     5.732     2.045     1.912  0.1592  0.3870  0.9082
 
              Baa    -0.0039    -2.091    -0.746    -0.698 -0.3449 -0.5225  0.7798
    23 H(1)   Bbb    -0.0027    -1.420    -0.507    -0.474  0.9335 -0.1040  0.3432
              Bcc     0.0066     3.511     1.253     1.171 -0.0982  0.8463  0.5236
 
              Baa    -0.0072    -3.844    -1.372    -1.282  0.3723 -0.6185  0.6920
    24 H(1)   Bbb    -0.0037    -1.994    -0.712    -0.665  0.8331 -0.1059 -0.5429
              Bcc     0.0109     5.839     2.083     1.948  0.4091  0.7786  0.4758
 
              Baa    -0.0078    -4.180    -1.492    -1.394  0.5163  0.2797  0.8094
    25 H(1)   Bbb    -0.0040    -2.118    -0.756    -0.707  0.8543 -0.1022 -0.5096
              Bcc     0.0118     6.299     2.247     2.101 -0.0598  0.9546 -0.2918
 
              Baa    -0.0042    -2.267    -0.809    -0.756  0.9022  0.3113  0.2984
    26 H(1)   Bbb    -0.0024    -1.284    -0.458    -0.428 -0.2620 -0.1540  0.9527
              Bcc     0.0067     3.551     1.267     1.185 -0.3425  0.9378  0.0574
 
              Baa    -0.0059    -3.153    -1.125    -1.052  0.7831  0.2788 -0.5560
    27 H(1)   Bbb    -0.0043    -2.304    -0.822    -0.768  0.2312  0.6994  0.6763
              Bcc     0.0102     5.457     1.947     1.820 -0.5774  0.6581 -0.4832
 
              Baa    -0.0007    -0.031    -0.011    -0.010  0.0789  0.9712 -0.2249
    28 S(33)  Bbb    -0.0007    -0.029    -0.010    -0.010  0.0975  0.2170  0.9713
              Bcc     0.0015     0.060     0.021     0.020  0.9921 -0.0985 -0.0776
 
              Baa    -0.0008     0.060     0.021     0.020 -0.1728 -0.1118  0.9786
    29 O(17)  Bbb    -0.0008     0.059     0.021     0.020  0.2129  0.9658  0.1479
              Bcc     0.0016    -0.119    -0.043    -0.040  0.9617 -0.2339  0.1431
 
              Baa    -0.0007     0.050     0.018     0.017  0.2238  0.9743 -0.0267
    30 O(17)  Bbb    -0.0006     0.046     0.016     0.015  0.3076 -0.0446  0.9505
              Bcc     0.0013    -0.095    -0.034    -0.032  0.9248 -0.2210 -0.3096
 
              Baa    -0.0003    -0.045    -0.016    -0.015  0.0356 -0.2023  0.9787
    31 C(13)  Bbb    -0.0003    -0.044    -0.016    -0.015  0.0513  0.9784  0.2004
              Bcc     0.0007     0.089     0.032     0.030  0.9980 -0.0431 -0.0452
 
              Baa    -0.0003    -0.167    -0.060    -0.056 -0.0658 -0.1731  0.9827
    32 H(1)   Bbb    -0.0003    -0.167    -0.059    -0.056 -0.0490  0.9842  0.1701
              Bcc     0.0006     0.334     0.119     0.111  0.9966  0.0369  0.0732
 
              Baa    -0.0003    -0.144    -0.051    -0.048  0.0220 -0.0290  0.9993
    33 H(1)   Bbb    -0.0003    -0.144    -0.051    -0.048  0.1576  0.9872  0.0252
              Bcc     0.0005     0.288     0.103     0.096  0.9873 -0.1570 -0.0263
 
              Baa    -0.0003    -0.153    -0.055    -0.051  0.1452 -0.4944  0.8570
    34 H(1)   Bbb    -0.0003    -0.152    -0.054    -0.051  0.0559  0.8689  0.4918
              Bcc     0.0006     0.305     0.109     0.102  0.9878  0.0235 -0.1538
 

 ---------------------------------------------------------------------------------

 No NMR shielding tensors so no spin-rotation constants.
 Leave Link  601 at Mon Jun 17 21:33:26 2019, MaxMem=  8053063680 cpu:               0.0 elap:               0.3
 (Enter /data2/g16/g16/l9999.exe)
 1\1\GINC-CU02\SP\UPBE1PBE\Gen\C10H18N1O3S2(2)\ROOT\17-Jun-2019\0\\#p g
 en 6d pbe1pbe\\start preoptimized\\0,2\O,0,-3.662682,0.164649,1.056201
 \N,0,-2.644831,0.045469,0.308421\C,0,-2.171233,-1.267829,-0.172332\C,0
 ,-0.860283,-0.865892,-0.778339\C,0,-0.595404,0.438574,-0.647788\C,0,0.
 610145,1.120376,-1.193988\S,0,1.947567,1.451561,0.033285\C,0,-1.702506
 ,1.165435,0.089541\C,0,-1.286336,1.74431,1.443611\C,0,-2.383099,2.2400
 54,-0.765914\C,0,-3.148901,-1.829544,-1.20818\C,0,-2.023442,-2.227064,
 1.013431\H,0,-0.204533,-1.580474,-1.270113\H,0,1.066789,0.534249,-1.99
 2942\H,0,0.383348,2.118995,-1.583368\H,0,-0.753715,1.00084,2.041619\H,
 0,-0.635183,2.615065,1.311561\H,0,-2.186728,2.054291,1.982422\H,0,-3.2
 96192,2.575935,-0.260846\H,0,-1.729185,3.10903,-0.901269\H,0,-2.654898
 ,1.846368,-1.749986\H,0,-3.243085,-1.153658,-2.066764\H,0,-2.801184,-2
 .806333,-1.568676\H,0,-4.135869,-1.954948,-0.751538\H,0,-2.994151,-2.3
 36714,1.50857\H,0,-1.686977,-3.210113,0.664568\H,0,-1.296509,-1.84975,
 1.736699\S,0,2.753423,-0.529488,0.104876\O,0,2.326232,-1.20779,1.34772
 4\O,0,2.497439,-1.167662,-1.208959\C,0,4.510088,-0.18468,0.237146\H,0,
 4.670352,0.427418,1.128787\H,0,4.988613,-1.160787,0.348206\H,0,4.83039
 8,0.323714,-0.671395\\Version=AM64L-G16RevB.01\State=2-A\HF=-1467.5483
 087\S2=0.755007\S2-1=0.\S2A=0.750017\RMSD=7.940e-09\Dipole=1.6318995,0
 .7265987,-0.8949944\Quadrupole=2.8049903,1.3694088,-4.174399,3.9214766
 ,5.3019558,-0.4741388\PG=C01 [X(C10H18N1O3S2)]\\@


 I DO NOT KNOW WHAT I MAY APPEAR TO THE WORLD; BUT TO MYSELF
 I SEEM TO HAVE BEEN ONLY LIKE A BOY PLAYING ON THE SEASHORE,
 AND DIVERTING MYSELF IN NOW AND THEN FINDING A SMOOTHER PEBBLE
 OR A PRETTIER SHELL THAN ORDINARY, WHILST THE GREAT OCEAN OF
 TRUTH LAY ALL UNDISCOVERED BEFORE ME.
                                          -- NEWTON (1642-1726)
 Elapsed time:       0 days  0 hours  2 minutes 39.0 seconds.
 File lengths (MBytes):  RWF=    181 Int=      0 D2E=      0 Chk=     15 Scr=      1
 Normal termination of Gaussian 16 at Mon Jun 17 21:33:26 2019.
