 Entering Gaussian System, Link 0=g16
 AtFile(1): /home/malgo/Basis_sets/n07d_pbe0.gbs
            -H 0
             6-31G
             S   1 1.00       0.000000000000
                  0.4000000000D+00  0.10000000D+01
             P   1 1.00       0.000000000000
                  0.7500000000D+00  0.10000000D+01
             ****
             -He 0
             6-31+G**
             ****
             -Li 0
             6-31+G**
             ****
             -Be 0
             6-31+G**
             ****
             -B 0
             6-31G
             S   1 1.00       0.000000000000
                  0.7000000000D+01  0.1000000000D+01
             P   1 1.00       0.000000000000
                  0.3500000000D-01  0.1000000000D+01
             D   1 1.00
                  0.3430000000D+00  0.1000000000D+01
             ****
             -C 0
             6-31G
             S   1 1.00       0.000000000000
                  0.8700000000D+01  0.1000000000D+01
             P   1 1.00       0.000000000000
                  0.5000000000D-01  0.1000000000D+01
             D   1 1.00
                  0.8200000000D+00  0.1000000000D+01
             ****
             -N 0
             6-31G
             S   1 1.00       0.000000000000
                  0.1370000000D+02  0.1000000000D+01
             P   1 1.00       0.000000000000
                  0.5300000000D-01  0.1000000000D+01
             D   1 1.00       0.000000000000
                  0.1015000000D+01  0.1000000000D+01
             ****
             -O 0
             6-31G
             S   1 1.00
                  0.1600000000D+02  0.1000000000D+01
             P   1 1.00       0.000000000000
                  0.6500000000D-01  0.1000000000D+01
             D   1 1.00        0.000000000000
                  0.1190000000D+01  0.1000000000D+01
             D   1 1.00        0.000000000000
                  0.1800000000D+00  0.1000000000D+01
             ****
             -F 0
             6-31G
             S   1 1.00
                  0.1770000000D+02  0.1000000000D+01
             P   1 1.00       0.000000000000
                  0.8300000000D-01  0.1000000000D+01
             D   1 1.00       0.000000000000
                  1.3700000000D+00  0.1000000000D+01
             D   1 1.00       0.000000000000
                  0.2300000000D+00  0.1000000000D+01
             ****
             -Ne 0
             6-31+G**
             ****
             -Na 0
             6-31+G**
             ****
             -Mg 0
             6-31+G**
             ****
             -Al 0
             6-31G
             S   1 1.00      0.000000000000
                  0.3100000000D+01  0.1000000000D+01
             P   1 1.00      0.000000000000
                  0.1500000000D-01  0.1000000000D+01
             D   1 1.00      0.000000000000
                  0.1890000000D+00  0.1000000000D+01
             ****
             -Si 0
             6-31G
             S   1 1.00      0.000000000000
                  0.5000000000D+01  0.1000000000D+01
             P   1 1.00       0.000000000000
                  0.3300000000D-01  0.1000000000D+01
             D   1 1.0        0.000000000000
                  0.2750000000D+00  0.1000000000D+01
             ****
             -P  0
             6-31G
             S   1 1.00       0.000000000000
                  0.6300000000D+01  0.1000000000D+01
             P   1 1.00       0.000000000000
                  0.3500000000D-01  0.1000000000D+01
             D   1 1.00       0.000000000000
                  0.3730000000D+00  0.1000000000D+01
             ****
             -S  0
             6-31G
             S   1  1.00      0.000000000000
                  0.7500000000D+01  0.1000000000D+01
             P   1 1.00       0.000000000000
                  0.4100000000D-01  0.1000000000D+01
             D   1 1.00       0.000000000000
                  0.4790000000D+00  0.1000000000D+01
             ****
            -Cl 0
             6-31G
             S   1 1.00       0.000000000000
                  0.8500000000D+01  0.1000000000D+01
             P   1 1.00       0.000000000000
                  0.4800000000D-01  0.1000000000D+01
             D   1 1.00       0.000000000000
                  0.6000000000D+00  0.1000000000D+01
             D   1 1.00       0.000000000000
                  0.1960000000D+00  0.1000000000D+01
             ****
            -Br 0
             S   3 1.00       0.000000000000
                  0.4721881000D+01  0.1749732514D+00
                  0.2257555000D+01 -0.7074172290D+00
                  0.3896080000D+00  0.1258999543D+01
             S   1 1.00       0.000000000000
                  0.1471340000D+00  0.1000000000D+01
             P   3 1.00       0.000000000000
                  0.1896942000D+01 -0.2464576731D+00
                  0.9108990000D+00  0.3623179892D+00
                  0.3168550000D+00  0.8338469725D+00
             P   1 1.00       0.000000000000
                  0.1095030000D+00  0.1000000000D+01
             P   1 1.00       0.000000000000
                  0.3609700000D-01  0.1000000000D+01
             D   1 1.00
                  0.4750000000D+00  0.1000000000D+01
             D   1 1.00
                  0.1280000000D+00  0.1000000000D+01
             ****
            -I   0
             S   3 1.00       0.000000000000
                  0.2122765000D+01  0.2063429899D+01
                  0.1770481000D+01 -0.2869526473D+01
                  0.3130840000D+00  0.1404747074D+01
             S   1 1.00       0.000000000000
                  0.1320000000D+00  0.1000000000D+01
             P   3 1.00       0.000000000000
                  0.2432887000D+01  0.7732753148D+00
                  0.2137249000D+01 -0.1020833156D+01
                  0.3145460000D+00  0.1095666871D+01
             P   1 1.00       0.000000000000
                  0.1049450000D+00  0.1000000000D+01
             P   1 1.00       0.000000000000
                  0.3264100000D-01  0.1000000000D+01
             D   1 1.00
                  0.300000000          1.00000000
             D   1 1.00
                  0.090000000          1.00000000
             ****
             -Zn 0
             SP   6 1.00       0.000000000000
                  0.6936492000D+02 -0.4440098182D-02 -0.7689261805D-02
                  0.2362082000D+02  0.7505253308D-01 -0.2997981924D-01
                  0.1018471000D+02  0.2533111104D+00  0.7082410821D-01
                  0.4334082000D+01 -0.2881897118D+00  0.4046140897D+00
                  0.1810918000D+01 -0.7267052298D+00  0.4882324876D+00
                  0.7148410000D+00 -0.2133439088D+00  0.1751969956D+00
             SP   3 1.00       0.000000000000
                  0.2823842000D+01  0.4898545031D-01 -0.1586762981D+00
                  0.1039543000D+01  0.2592794075D+00  0.8379326898D-01
                  0.1432640000D+00 -0.1115711463D+01  0.9840546881D+00
             SP   1 1.00       0.000000000000
                  0.4929600000D-01  0.1000000000D+01  0.1000000000D+01
             S    1 1.00       0.000000000000
                  0.1620000000D+00  0.1000000000D+01
             D    3 1.00       0.000000000000
                  0.3370764000D+02  0.9262647815D-01
                  0.9061106000D+01  0.4002979920D+00
                  0.2738383000D+01  0.6896607863D+00
             D    1 1.00
                  0.2440000000D+01  0.1000000000D+01
             D    1 1.00       0.000000000000
                  0.7302940000D+00  0.1000000000D+01
             D    1 1.00       0.000000000000
                  0.1620000000D+00  0.1000000000D+01
            ****
 Initial command:
 /data2/g16/g16/l1.exe "/tmp/Gau-26812.inp" -scrdir="/tmp/"
 Entering Link 1 = /data2/g16/g16/l1.exe PID=     26813.
  
 Copyright (c) 1988-2017, Gaussian, Inc.  All Rights Reserved.
  
 This is part of the Gaussian(R) 16 program.  It is based on
 the Gaussian(R) 09 system (copyright 2009, Gaussian, Inc.),
 the Gaussian(R) 03 system (copyright 2003, Gaussian, Inc.),
 the Gaussian(R) 98 system (copyright 1998, Gaussian, Inc.),
 the Gaussian(R) 94 system (copyright 1995, Gaussian, Inc.),
 the Gaussian 92(TM) system (copyright 1992, Gaussian, Inc.),
 the Gaussian 90(TM) system (copyright 1990, Gaussian, Inc.),
 the Gaussian 88(TM) system (copyright 1988, Gaussian, Inc.),
 the Gaussian 86(TM) system (copyright 1986, Carnegie Mellon
 University), and the Gaussian 82(TM) system (copyright 1983,
 Carnegie Mellon University). Gaussian is a federally registered
 trademark of Gaussian, Inc.
  
 This software contains proprietary and confidential information,
 including trade secrets, belonging to Gaussian, Inc.
  
 This software is provided under written license and may be
 used, copied, transmitted, or stored only in accord with that
 written license.
  
 The following legend is applicable only to US Government
 contracts under FAR:
  
                    RESTRICTED RIGHTS LEGEND
  
 Use, reproduction and disclosure by the US Government is
 subject to restrictions as set forth in subparagraphs (a)
 and (c) of the Commercial Computer Software - Restricted
 Rights clause in FAR 52.227-19.
  
 Gaussian, Inc.
 340 Quinnipiac St., Bldg. 40, Wallingford CT 06492
  
  
 ---------------------------------------------------------------
 Warning -- This program may not be used in any manner that
 competes with the business of Gaussian, Inc. or will provide
 assistance to any competitor of Gaussian, Inc.  The licensee
 of this program is prohibited from giving any competitor of
 Gaussian, Inc. access to this program.  By using this program,
 the user acknowledges that Gaussian, Inc. is engaged in the
 business of creating and licensing software in the field of
 computational chemistry and represents and warrants to the
 licensee that it is not a competitor of Gaussian, Inc. and that
 it will not use this program in any manner prohibited above.
 ---------------------------------------------------------------
  

 Cite this work as:
 Gaussian 16, Revision B.01,
 M. J. Frisch, G. W. Trucks, H. B. Schlegel, G. E. Scuseria, 
 M. A. Robb, J. R. Cheeseman, G. Scalmani, V. Barone, 
 G. A. Petersson, H. Nakatsuji, X. Li, M. Caricato, A. V. Marenich, 
 J. Bloino, B. G. Janesko, R. Gomperts, B. Mennucci, H. P. Hratchian, 
 J. V. Ortiz, A. F. Izmaylov, J. L. Sonnenberg, D. Williams-Young, 
 F. Ding, F. Lipparini, F. Egidi, J. Goings, B. Peng, A. Petrone, 
 T. Henderson, D. Ranasinghe, V. G. Zakrzewski, J. Gao, N. Rega, 
 G. Zheng, W. Liang, M. Hada, M. Ehara, K. Toyota, R. Fukuda, 
 J. Hasegawa, M. Ishida, T. Nakajima, Y. Honda, O. Kitao, H. Nakai, 
 T. Vreven, K. Throssell, J. A. Montgomery, Jr., J. E. Peralta, 
 F. Ogliaro, M. J. Bearpark, J. J. Heyd, E. N. Brothers, K. N. Kudin, 
 V. N. Staroverov, T. A. Keith, R. Kobayashi, J. Normand, 
 K. Raghavachari, A. P. Rendell, J. C. Burant, S. S. Iyengar, 
 J. Tomasi, M. Cossi, J. M. Millam, M. Klene, C. Adamo, R. Cammi, 
 J. W. Ochterski, R. L. Martin, K. Morokuma, O. Farkas, 
 J. B. Foresman, and D. J. Fox, Gaussian, Inc., Wallingford CT, 2016.
 
 ******************************************
 Gaussian 16:  AM64L-G16RevB.01 20-Dec-2017
                17-Jun-2019 
 ******************************************
 %chk=MTN_PBE0_0.23.chk
 %mem=60GB
 %nprocshared=12
 Will use up to   12 processors via shared memory.
 -----------------
 #p gen 6d pbe1pbe
 -----------------
 1/38=1,172=1/1;
 2/12=2,17=6,18=5,40=1/2;
 3/5=7,8=2,11=2,25=1,30=1,74=-13/1,2,3;
 4//1;
 5/5=2,38=5/2;
 6/7=2,8=2,9=2,10=2,28=1/1;
 99/5=1,9=1/99;
 Leave Link    1 at Mon Jun 17 21:22:42 2019, MaxMem=  8053063680 cpu:               0.0 elap:               0.1
 (Enter /data2/g16/g16/l101.exe)
 ------------------
 start preoptimized
 ------------------
 Symbolic Z-matrix:
 Charge =  0 Multiplicity = 2
 O                    -3.67028   0.16785   1.0422 
 N                    -2.64203   0.04467   0.31402 
 C                    -2.17043  -1.26783  -0.17113 
 C                    -0.86188  -0.86469  -0.78154 
 C                    -0.5962    0.43937  -0.64859 
 C                     0.60975   1.12078  -1.19439 
 S                     1.94717   1.45076   0.03329 
 C                    -1.70171   1.16543   0.09154 
 C                    -1.28234   1.74591   1.44401 
 C                    -2.3863    2.23845  -0.76231 
 C                    -3.1537   -1.82794  -1.20218 
 C                    -2.01544  -2.22946   1.01143 
 H                    -0.20733  -1.57887  -1.27531 
 H                     1.06639   0.53465  -1.99374 
 H                     0.38375   2.11979  -1.58337 
 H                    -0.74692   1.00364   2.04122 
 H                    -0.63278   2.61747   1.30996 
 H                    -2.18153   2.05549   1.98522 
 H                    -3.29779   2.57354  -0.25445 
 H                    -1.73359   3.10783  -0.90047 
 H                    -2.6609    1.84357  -1.74519 
 H                    -3.25269  -1.15086  -2.05876 
 H                    -2.80838  -2.80393  -1.56588 
 H                    -4.13787  -1.95375  -0.73994 
 H                    -2.98295  -2.34191   1.51177 
 H                    -1.67978  -3.21131   0.65897 
 H                    -1.28491  -1.85255   1.7315 
 S                     2.75382  -0.52989   0.10528 
 O                     2.32703  -1.20819   1.34812 
 O                     2.49824  -1.16886  -1.20856 
 C                     4.51009  -0.18348   0.23795 
 H                     4.66955   0.42902   1.12919 
 H                     4.98941  -1.15919   0.34941 
 H                     4.8304    0.32451  -0.671 
 
 ITRead=  0  0  0  0  0  0  0  0  0  0  0  0  0  0  0  0  0  0  0  0
 ITRead=  0  0  0  0  0  0  0  0  0  0  0  0  0  0
 MicOpt= -1 -1 -1 -1 -1 -1 -1 -1 -1 -1 -1 -1 -1 -1 -1 -1 -1 -1 -1 -1
 MicOpt= -1 -1 -1 -1 -1 -1 -1 -1 -1 -1 -1 -1 -1 -1
 NAtoms=     34 NQM=       34 NQMF=       0 NMMI=      0 NMMIF=      0
                NMic=       0 NMicF=      0.
                    Isotopes and Nuclear Properties:
 (Nuclear quadrupole moments (NQMom) in fm**2, nuclear magnetic moments (NMagM)
  in nuclear magnetons)

  Atom         1           2           3           4           5           6           7           8           9          10
 IAtWgt=          16          14          12          12          12          12          32          12          12          12
 AtmWgt=  15.9949146  14.0030740  12.0000000  12.0000000  12.0000000  12.0000000  31.9720718  12.0000000  12.0000000  12.0000000
 NucSpn=           0           2           0           0           0           0           0           0           0           0
 AtZEff=   0.0000000   0.0000000   0.0000000   0.0000000   0.0000000   0.0000000   0.0000000   0.0000000   0.0000000   0.0000000
 NQMom=    0.0000000   2.0440000   0.0000000   0.0000000   0.0000000   0.0000000   0.0000000   0.0000000   0.0000000   0.0000000
 NMagM=    0.0000000   0.4037610   0.0000000   0.0000000   0.0000000   0.0000000   0.0000000   0.0000000   0.0000000   0.0000000
 AtZNuc=   8.0000000   7.0000000   6.0000000   6.0000000   6.0000000   6.0000000  16.0000000   6.0000000   6.0000000   6.0000000

  Atom        11          12          13          14          15          16          17          18          19          20
 IAtWgt=          12          12           1           1           1           1           1           1           1           1
 AtmWgt=  12.0000000  12.0000000   1.0078250   1.0078250   1.0078250   1.0078250   1.0078250   1.0078250   1.0078250   1.0078250
 NucSpn=           0           0           1           1           1           1           1           1           1           1
 AtZEff=   0.0000000   0.0000000   0.0000000   0.0000000   0.0000000   0.0000000   0.0000000   0.0000000   0.0000000   0.0000000
 NQMom=    0.0000000   0.0000000   0.0000000   0.0000000   0.0000000   0.0000000   0.0000000   0.0000000   0.0000000   0.0000000
 NMagM=    0.0000000   0.0000000   2.7928460   2.7928460   2.7928460   2.7928460   2.7928460   2.7928460   2.7928460   2.7928460
 AtZNuc=   6.0000000   6.0000000   1.0000000   1.0000000   1.0000000   1.0000000   1.0000000   1.0000000   1.0000000   1.0000000

  Atom        21          22          23          24          25          26          27          28          29          30
 IAtWgt=           1           1           1           1           1           1           1          32          16          16
 AtmWgt=   1.0078250   1.0078250   1.0078250   1.0078250   1.0078250   1.0078250   1.0078250  31.9720718  15.9949146  15.9949146
 NucSpn=           1           1           1           1           1           1           1           0           0           0
 AtZEff=   0.0000000   0.0000000   0.0000000   0.0000000   0.0000000   0.0000000   0.0000000   0.0000000   0.0000000   0.0000000
 NQMom=    0.0000000   0.0000000   0.0000000   0.0000000   0.0000000   0.0000000   0.0000000   0.0000000   0.0000000   0.0000000
 NMagM=    2.7928460   2.7928460   2.7928460   2.7928460   2.7928460   2.7928460   2.7928460   0.0000000   0.0000000   0.0000000
 AtZNuc=   1.0000000   1.0000000   1.0000000   1.0000000   1.0000000   1.0000000   1.0000000  16.0000000   8.0000000   8.0000000

  Atom        31          32          33          34
 IAtWgt=          12           1           1           1
 AtmWgt=  12.0000000   1.0078250   1.0078250   1.0078250
 NucSpn=           0           1           1           1
 AtZEff=   0.0000000   0.0000000   0.0000000   0.0000000
 NQMom=    0.0000000   0.0000000   0.0000000   0.0000000
 NMagM=    0.0000000   2.7928460   2.7928460   2.7928460
 AtZNuc=   6.0000000   1.0000000   1.0000000   1.0000000
 Leave Link  101 at Mon Jun 17 21:22:42 2019, MaxMem=  8053063680 cpu:               0.0 elap:               0.2
 (Enter /data2/g16/g16/l202.exe)
                          Input orientation:                          
 ---------------------------------------------------------------------
 Center     Atomic      Atomic             Coordinates (Angstroms)
 Number     Number       Type             X           Y           Z
 ---------------------------------------------------------------------
      1          8           0       -3.670282    0.167849    1.042201
      2          7           0       -2.642031    0.044669    0.314021
      3          6           0       -2.170433   -1.267829   -0.171132
      4          6           0       -0.861883   -0.864692   -0.781539
      5          6           0       -0.596204    0.439374   -0.648588
      6          6           0        0.609745    1.120776   -1.194388
      7         16           0        1.947167    1.450761    0.033285
      8          6           0       -1.701706    1.165435    0.091541
      9          6           0       -1.282336    1.745910    1.444011
     10          6           0       -2.386299    2.238454   -0.762314
     11          6           0       -3.153701   -1.827944   -1.202180
     12          6           0       -2.015442   -2.229464    1.011431
     13          1           0       -0.207333   -1.578874   -1.275313
     14          1           0        1.066389    0.534649   -1.993742
     15          1           0        0.383748    2.119795   -1.583368
     16          1           0       -0.746915    1.003640    2.041219
     17          1           0       -0.632783    2.617465    1.309961
     18          1           0       -2.181528    2.055491    1.985222
     19          1           0       -3.297792    2.573535   -0.254446
     20          1           0       -1.733585    3.107830   -0.900469
     21          1           0       -2.660898    1.843568   -1.745186
     22          1           0       -3.252685   -1.150858   -2.058764
     23          1           0       -2.808384   -2.803933   -1.565876
     24          1           0       -4.137869   -1.953748   -0.739938
     25          1           0       -2.982951   -2.341914    1.511770
     26          1           0       -1.679777   -3.211313    0.658968
     27          1           0       -1.284909   -1.852550    1.731499
     28         16           0        2.753823   -0.529888    0.105276
     29          8           0        2.327032   -1.208190    1.348124
     30          8           0        2.498239   -1.168862   -1.208559
     31          6           0        4.510088   -0.183480    0.237946
     32          1           0        4.669552    0.429018    1.129187
     33          1           0        4.989413   -1.159187    0.349406
     34          1           0        4.830398    0.324514   -0.670995
 ---------------------------------------------------------------------
                    Distance matrix (angstroms):
                    1          2          3          4          5
     1  O    0.000000
     2  N    1.265986   0.000000
     3  C    2.404765   1.476628   0.000000
     4  C    3.504179   2.279499   1.499140   0.000000
     5  C    3.518870   2.295172   2.370802   1.337479   0.000000
     6  C    4.922299   3.742640   3.805506   2.505637   1.488798
     7  S    5.849744   4.807977   4.938335   3.730419   2.820743
     8  C    2.402961   1.479806   2.491882   2.364104   1.515615
     9  C    2.890331   2.453542   3.532708   3.456168   2.560622
    10  C    3.031879   2.456947   3.562319   3.457416   2.540485
    11  C    3.047506   2.463199   1.530884   2.521353   3.462367
    12  C    2.913169   2.459812   1.532064   2.531411   3.448564
    13  H    4.518178   3.330109   2.273703   1.087338   2.148797
    14  H    5.638044   4.395251   4.128904   2.673167   2.140732
    15  H    5.209498   4.130566   4.471493   3.331920   2.158225
    16  H    3.200415   2.737572   3.475697   3.387011   2.752485
    17  H    3.911357   3.412954   4.433228   4.068449   2.929391
    18  H    2.582415   2.654879   3.961621   4.233662   3.473045
    19  H    2.758146   2.673638   4.004242   4.246514   3.465338
    20  H    4.020976   3.418072   4.457484   4.068776   2.911655
    21  H    3.405351   2.734360   3.521220   3.391127   2.727132
    22  H    3.395491   2.726223   2.179015   2.725643   3.402106
    23  H    4.046779   3.417048   2.170693   2.857395   4.031650
    24  H    2.809952   2.709618   2.159822   3.452515   4.275368
    25  H    2.644207   2.691952   2.155459   3.455486   4.254324
    26  H    3.940522   3.412673   2.169548   2.872393   4.026332
    27  H    3.201117   2.729554   2.178544   2.733162   3.375210
    28  S    6.529456   5.430371   4.986908   3.737896   3.567977
    29  O    6.160751   5.227869   4.747514   3.850017   3.904694
    30  O    6.700998   5.496661   4.783571   3.400777   3.532077
    31  C    8.227315   7.156161   6.780304   5.510124   5.219972
    32  H    8.344376   7.366917   7.166276   5.993441   5.557767
    33  H    8.788134   7.725895   7.179565   5.966861   5.894956
    34  H    8.673012   7.542265   7.197017   5.816227   5.427864
                    6          7          8          9         10
     6  C    0.000000
     7  S    1.845202   0.000000
     8  C    2.645451   3.660475   0.000000
     9  C    3.306344   3.536517   1.530359   0.000000
    10  C    3.226790   4.475753   1.532679   2.515791   0.000000
    11  C    4.781060   6.188306   3.569639   4.824600   4.161488
    12  C    4.793887   5.495734   3.531284   4.065485   4.821410
    13  H    2.821750   3.941191   3.410670   4.427702   4.425274
    14  H    1.091346   2.392461   3.522591   4.336105   4.042329
    15  H    1.095636   2.346370   2.839937   3.475723   2.891603
    16  H    3.510470   3.389660   2.176935   1.092839   3.474499
    17  H    3.171075   3.106001   2.176128   1.095215   2.740947
    18  H    4.332992   4.606721   2.146732   1.094210   2.761224
    19  H    4.273505   5.371499   2.156373   2.762568   1.095915
    20  H    3.086417   4.143152   2.181284   2.748643   1.095873
    21  H    3.394542   4.954949   2.180248   3.475766   1.094247
    22  H    4.563533   6.179284   3.520591   4.954086   3.730797
    23  H    5.217753   6.578374   4.441582   5.664743   5.123430
    24  H    5.674422   7.015427   4.044200   5.158602   4.543463
    25  H    5.676353   6.393463   3.995014   4.427978   5.148517
    26  H    5.238686   5.939793   4.413431   5.034711   5.676194
    27  H    4.581615   4.923628   3.459973   3.609927   4.916145
    28  S    3.001814   2.139824   4.767184   4.823074   5.902312
    29  O    3.851951   2.990505   4.841883   4.665130   6.208767
    30  O    2.968005   2.950980   4.977825   5.461206   5.972240
    31  C    4.354921   3.046505   6.358254   6.223288   7.377428
    32  H    4.728590   3.107465   6.497072   6.103957   7.525747
    33  H    5.173299   4.020824   7.088119   6.998041   8.196402
    34  H    4.326879   3.174502   6.630007   6.622623   7.466741
                   11         12         13         14         15
    11  C    0.000000
    12  C    2.521294   0.000000
    13  H    2.957781   2.986925   0.000000
    14  H    4.900773   5.115571   2.570114   0.000000
    15  H    5.314461   5.604030   3.758248   1.774005   0.000000
    16  H    4.932558   3.622511   4.237914   4.448475   3.957503
    17  H    5.694519   5.049117   4.947111   4.259080   3.106825
    18  H    5.117198   4.397351   5.266606   5.356686   4.395408
    19  H    4.504662   5.129880   5.275946   5.121356   3.940260
    20  H    5.144864   5.676400   4.943192   3.956812   2.434269
    21  H    3.744023   4.960357   4.237201   3.958247   3.061430
    22  H    1.096348   3.481416   3.173509   4.636762   4.913941
    23  H    1.097303   2.757042   2.889751   5.132550   5.867973
    24  H    1.094569   2.765503   3.984504   5.903257   6.144115
    25  H    2.767462   1.095015   4.006759   6.079505   6.389162
    26  H    2.747732   1.095869   2.928206   5.348881   6.140596
    27  H    3.478428   1.092813   3.205774   5.010463   5.436201
    28  S    6.188152   5.143497   3.431449   2.895954   3.935682
    29  O    6.076724   4.473639   3.666447   3.974264   4.842054
    30  O    5.690242   5.140676   2.737277   2.359800   3.927699
    31  C    7.969435   6.882359   5.146954   4.165958   5.064478
    32  H    8.469500   7.195175   5.796314   4.769342   5.346475
    33  H    8.316547   7.117005   5.460954   4.873350   5.974905
    34  H    8.286198   7.497925   5.419116   3.995195   4.881409
                   16         17         18         19         20
    16  H    0.000000
    17  H    1.775442   0.000000
    18  H    1.779787   1.780563   0.000000
    19  H    3.773807   3.090562   2.555490   0.000000
    20  H    3.748955   2.517583   3.104075   1.774700   0.000000
    21  H    4.325006   3.747811   3.767048   1.777862   1.780959
    22  H    5.265986   5.693194   5.270851   4.138684   4.667519
    23  H    5.635459   6.511162   6.051219   5.556665   6.045403
    24  H    5.289570   6.114221   5.227596   4.630089   5.605883
    25  H    4.058683   5.491763   4.494842   5.232617   6.089296
    26  H    4.532844   5.957738   5.454349   6.075917   6.508941
    27  H    2.922873   4.536959   4.017597   5.252228   5.633288
    28  S    4.284244   4.777677   5.880142   6.810483   5.863561
    29  O    3.849899   4.837106   5.602198   6.964791   6.338202
    30  O    5.080536   5.521097   6.518965   6.964901   6.024396
    31  C    5.683056   5.953455   7.269366   8.294973   7.149277
    32  H    5.522690   5.739054   7.093342   8.366120   7.231577
    33  H    6.359679   6.840676   8.026982   9.109095   8.060293
    34  H    6.238889   6.247252   7.695380   8.443878   7.133399
                   21         22         23         24         25
    21  H    0.000000
    22  H    3.068408   0.000000
    23  H    4.653297   1.781291   0.000000
    24  H    4.196615   1.779743   1.781157   0.000000
    25  H    5.313167   3.773604   3.117024   2.560214   0.000000
    26  H    5.682814   3.755740   2.527774   3.095258   1.783645
    27  H    5.257563   4.327887   3.754835   3.775927   1.780760
    28  S    6.194894   6.414578   6.237161   7.087819   6.178369
    29  O    6.615228   6.537845   6.116395   6.834530   5.432129
    30  O    5.998283   5.813458   5.564295   6.698775   6.230544
    31  C    7.711341   8.152996   7.980011   8.881287   7.901082
    32  H    7.999904   8.684519   8.581076   9.313531   8.147714
    33  H    8.481221   8.586707   8.196288   9.226336   8.143004
    34  H    7.718868   8.332998   8.302950   9.253380   8.539480
                   26         27         28         29         30
    26  H    0.000000
    27  H    1.775523   0.000000
    28  S    5.210895   4.550318   0.000000
    29  O    4.532323   3.688942   1.478822   0.000000
    30  O    5.011495   4.839791   1.483163   2.562711   0.000000
    31  C    6.903583   6.212768   1.795012   2.654856   2.666625
    32  H    7.333969   6.404993   2.374429   2.866319   3.568316
    33  H    6.984636   6.462047   2.335269   2.843961   2.938247
    34  H    7.526836   6.921601   2.375871   3.562705   2.821013
                   31         32         33         34
    31  C    0.000000
    32  H    1.093112   0.000000
    33  H    1.092785   1.797989   0.000000
    34  H    1.089417   1.810372   1.807726   0.000000
 Stoichiometry    C10H18NO3S2(2)
 Framework group  C1[X(C10H18NO3S2)]
 Deg. of freedom    96
 Full point group                 C1      NOp   1
 Largest Abelian subgroup         C1      NOp   1
 Largest concise Abelian subgroup C1      NOp   1
                         Standard orientation:                         
 ---------------------------------------------------------------------
 Center     Atomic      Atomic             Coordinates (Angstroms)
 Number     Number       Type             X           Y           Z
 ---------------------------------------------------------------------
      1          8           0       -3.672365    0.174657    1.034264
      2          7           0       -2.642686    0.050061    0.308345
      3          6           0       -2.172609   -1.262947   -0.176902
      4          6           0       -0.861847   -0.861897   -0.783927
      5          6           0       -0.593855    0.441513   -0.649189
      6          6           0        0.614717    1.120976   -1.191593
      7         16           0        1.949964    1.447169    0.039456
      8          6           0       -1.699600    1.169132    0.089044
      9          6           0       -1.282185    1.747550    1.442999
     10          6           0       -2.380063    2.244292   -0.765420
     11          6           0       -3.154619   -1.820158   -1.210718
     12          6           0       -2.022279   -2.225952    1.005148
     13          1           0       -0.207596   -1.576951   -1.276835
     14          1           0        1.072025    0.534648   -1.990421
     15          1           0        0.391627    2.120796   -1.580193
     16          1           0       -0.749636    1.003669    2.040771
     17          1           0       -0.630574    2.617916    1.311232
     18          1           0       -2.181999    2.058454    1.982415
     19          1           0       -3.292050    2.580750   -0.259353
     20          1           0       -1.725286    3.112476   -0.901286
     21          1           0       -2.653187    1.850840   -1.749278
     22          1           0       -3.250266   -1.142107   -2.066918
     23          1           0       -2.810426   -2.796514   -1.574497
     24          1           0       -4.140102   -1.944396   -0.750860
     25          1           0       -2.991164   -2.336904    1.503154
     26          1           0       -1.687776   -3.208158    0.652575
     27          1           0       -1.292654   -1.851154    1.727238
     28         16           0        2.752470   -0.535163    0.111522
     29          8           0        2.321450   -1.213719    1.352771
     30          8           0        2.498633   -1.172443   -1.203474
     31          6           0        4.509116   -0.192408    0.248552
     32          1           0        4.667755    0.418969    1.140710
     33          1           0        4.986221   -1.169177    0.360237
     34          1           0        4.832543    0.315755   -0.659190
 ---------------------------------------------------------------------
 Rotational constants (GHZ):           0.7717496           0.2775383           0.2436178
 Leave Link  202 at Mon Jun 17 21:22:42 2019, MaxMem=  8053063680 cpu:               0.0 elap:               0.1
 (Enter /data2/g16/g16/l301.exe)
 General basis read from cards:  (6D, 7F)
 Centers:      13     14     15     16     17     18     19     20     21     22
 Centers:      23     24     25     26     27     32     33     34
 6-31G
 S 1 1.00 0.000000000000
     Exponent=  4.0000000000D-01 Coefficients=  1.0000000000D+00
 P 1 1.00 0.000000000000
     Exponent=  7.5000000000D-01 Coefficients=  1.0000000000D+00
 ****
 Centers:       3      4      5      6      8      9     10     11     12     31
 6-31G
 S 1 1.00 0.000000000000
     Exponent=  8.7000000000D+00 Coefficients=  1.0000000000D+00
 P 1 1.00 0.000000000000
     Exponent=  5.0000000000D-02 Coefficients=  1.0000000000D+00
 D 1 1.00
     Exponent=  8.2000000000D-01 Coefficients=  1.0000000000D+00
 ****
 Centers:       2
 6-31G
 S 1 1.00 0.000000000000
     Exponent=  1.3700000000D+01 Coefficients=  1.0000000000D+00
 P 1 1.00 0.000000000000
     Exponent=  5.3000000000D-02 Coefficients=  1.0000000000D+00
 D 1 1.00 0.000000000000
     Exponent=  1.0150000000D+00 Coefficients=  1.0000000000D+00
 ****
 Centers:       1     29     30
 6-31G
 S 1 1.00
     Exponent=  1.6000000000D+01 Coefficients=  1.0000000000D+00
 P 1 1.00 0.000000000000
     Exponent=  6.5000000000D-02 Coefficients=  1.0000000000D+00
 D 1 1.00 0.000000000000
     Exponent=  1.1900000000D+00 Coefficients=  1.0000000000D+00
 D 1 1.00 0.000000000000
     Exponent=  1.8000000000D-01 Coefficients=  1.0000000000D+00
 ****
 Centers:       7     28
 6-31G
 S 1 1.00 0.000000000000
     Exponent=  7.5000000000D+00 Coefficients=  1.0000000000D+00
 P 1 1.00 0.000000000000
     Exponent=  4.1000000000D-02 Coefficients=  1.0000000000D+00
 D 1 1.00 0.000000000000
     Exponent=  4.7900000000D-01 Coefficients=  1.0000000000D+00
 ****
 Ernie: Thresh=  0.10000D-02 Tol=  0.10000D-05 Strict=F.
 There are   438 symmetry adapted cartesian basis functions of A   symmetry.
 There are   438 symmetry adapted basis functions of A   symmetry.
   438 basis functions,   722 primitive gaussians,   438 cartesian basis functions
    71 alpha electrons       70 beta electrons
       nuclear repulsion energy      1521.1541352067 Hartrees.
 IExCor= 1009 DFT=T Ex+Corr=PBE1PBE ExCW=0 ScaHFX=  0.250000
 ScaDFX=  0.750000  0.750000  1.000000  1.000000 ScalE2=  1.000000  1.000000
 IRadAn=      5 IRanWt=     -1 IRanGd=            0 ICorTp=0 IEmpDi=  4
 NAtoms=   34 NActive=   34 NUniq=   34 SFac= 1.00D+00 NAtFMM=   60 NAOKFM=F Big=F
 Integral buffers will be    131072 words long.
 Raffenetti 2 integral format.
 Two-electron integral symmetry is turned on.
 Leave Link  301 at Mon Jun 17 21:22:42 2019, MaxMem=  8053063680 cpu:               0.0 elap:               0.2
 (Enter /data2/g16/g16/l302.exe)
 NPDir=0 NMtPBC=     1 NCelOv=     1 NCel=       1 NClECP=     1 NCelD=      1
         NCelK=      1 NCelE2=     1 NClLst=     1 CellRange=     0.0.
 One-electron integrals computed using PRISM.
 One-electron integral symmetry used in STVInt
 NBasis=   438 RedAO= T EigKep=  6.64D-05  NBF=   438
 NBsUse=   438 1.00D-06 EigRej= -1.00D+00 NBFU=   438
 Precomputing XC quadrature grid using
 IXCGrd= 4 IRadAn=           5 IRanWt=          -1 IRanGd=           0 AccXCQ= 0.00D+00.
 Generated NRdTot=       0 NPtTot=           0 NUsed=           0 NTot=          32
 NSgBfM=   433   433   433   433   433 MxSgAt=    34 MxSgA2=    34.
 Leave Link  302 at Mon Jun 17 21:22:43 2019, MaxMem=  8053063680 cpu:               0.0 elap:               0.5
 (Enter /data2/g16/g16/l303.exe)
 DipDrv:  MaxL=1.
 Leave Link  303 at Mon Jun 17 21:22:43 2019, MaxMem=  8053063680 cpu:               0.0 elap:               0.1
 (Enter /data2/g16/g16/l401.exe)
 ExpMin= 4.10D-02 ExpMax= 2.19D+04 ExpMxC= 3.30D+03 IAcc=3 IRadAn=         5 AccDes= 0.00D+00
 Harris functional with IExCor= 1009 and IRadAn=       5 diagonalized for initial guess.
 HarFok:  IExCor= 1009 AccDes= 0.00D+00 IRadAn=         5 IDoV= 1 UseB2=F ITyADJ=14
 ICtDFT=  3500011 ScaDFX=  1.000000  1.000000  1.000000  1.000000
 FoFCou: FMM=F IPFlag=           0 FMFlag=      100000 FMFlg1=           0
         NFxFlg=           0 DoJE=T BraDBF=F KetDBF=T FulRan=T
         wScrn=  0.000000 ICntrl=       500 IOpCl=  0 I1Cent=   200000004 NGrid=           0
         NMat0=    1 NMatS0=      1 NMatT0=    0 NMatD0=    1 NMtDS0=    0 NMtDT0=    0
 Petite list used in FoFCou.
 Harris En= -1467.69866955635    
 JPrj=0 DoOrth=F DoCkMO=F.
 Initial guess <Sx>= 0.0000 <Sy>= 0.0000 <Sz>= 0.5000 <S**2>= 0.7500 S= 0.5000
 Leave Link  401 at Mon Jun 17 21:22:44 2019, MaxMem=  8053063680 cpu:               0.0 elap:               1.6
 (Enter /data2/g16/g16/l502.exe)
 Integral symmetry usage will be decided dynamically.
 UHF open shell SCF:
 Using DIIS extrapolation, IDIIS=  1040.
 NGot=  8053063680 LenX=  8052670277 LenY=  8052477992
 Requested convergence on RMS density matrix=1.00D-08 within 128 cycles.
 Requested convergence on MAX density matrix=1.00D-06.
 Requested convergence on             energy=1.00D-06.
 No special actions if energy rises.
 Fock matrices will be formed incrementally for  20 cycles.

 Cycle   1  Pass 1  IDiag  1:
 FoFJK:  IHMeth= 1 ICntrl=       0 DoSepK=F KAlg= 0 I1Cent=           0 FoldK=F
 IRaf= 840000000 NMat=       1 IRICut=       1 DoRegI=T DoRafI=F ISym2E= 0 IDoP0=0 IntGTp=1.
 FoFCou: FMM=F IPFlag=           0 FMFlag=      100000 FMFlg1=           0
         NFxFlg=           0 DoJE=F BraDBF=F KetDBF=F FulRan=T
         wScrn=  0.000000 ICntrl=         0 IOpCl=  1 I1Cent=           0 NGrid=           0
         NMat0=    1 NMatS0=      1 NMatT0=    0 NMatD0=    1 NMtDS0=    0 NMtDT0=    0
 Symmetry not used in FoFCou.
 E= -1466.93574084062    
 DIIS: error= 2.55D-02 at cycle   1 NSaved=   1.
 NSaved= 1 IEnMin= 1 EnMin= -1466.93574084062     IErMin= 1 ErrMin= 2.55D-02
 ErrMax= 2.55D-02  0.00D+00 EMaxC= 1.00D-01 BMatC= 2.97D+00 BMatP= 2.97D+00
 IDIUse=3 WtCom= 7.45D-01 WtEn= 2.55D-01
 Coeff-Com:  0.100D+01
 Coeff-En:   0.100D+01
 Coeff:      0.100D+01
 Gap=     0.225 Goal=   None    Shift=    0.000
 Gap=     0.364 Goal=   None    Shift=    0.000
 GapD=    0.225 DampG=1.000 DampE=0.500 DampFc=0.5000 IDamp=-1.
 Damping current iteration by 5.00D-01
 RMSDP=4.75D-03 MaxDP=4.12D-01              OVMax= 3.11D-01

 Cycle   2  Pass 1  IDiag  1:
 RMSU=  2.37D-03    CP:  9.92D-01
 E= -1467.06243541263     Delta-E=       -0.126694572012 Rises=F Damp=T
 DIIS: error= 1.04D-02 at cycle   2 NSaved=   2.
 NSaved= 2 IEnMin= 2 EnMin= -1467.06243541263     IErMin= 2 ErrMin= 1.04D-02
 ErrMax= 1.04D-02  0.00D+00 EMaxC= 1.00D-01 BMatC= 5.21D-01 BMatP= 2.97D+00
 IDIUse=3 WtCom= 8.96D-01 WtEn= 1.04D-01
 Coeff-Com:  0.226D+00 0.774D+00
 Coeff-En:   0.395D+00 0.605D+00
 Coeff:      0.244D+00 0.756D+00
 Gap=     0.128 Goal=   None    Shift=    0.000
 Gap=     0.185 Goal=   None    Shift=    0.000
 RMSDP=1.68D-03 MaxDP=1.19D-01 DE=-1.27D-01 OVMax= 2.88D-01

 Cycle   3  Pass 1  IDiag  1:
 RMSU=  1.39D-03    CP:  9.82D-01  6.10D-01
 E= -1467.46633135164     Delta-E=       -0.403895939011 Rises=F Damp=F
 DIIS: error= 9.71D-03 at cycle   3 NSaved=   3.
 NSaved= 3 IEnMin= 3 EnMin= -1467.46633135164     IErMin= 3 ErrMin= 9.71D-03
 ErrMax= 9.71D-03  0.00D+00 EMaxC= 1.00D-01 BMatC= 3.54D-01 BMatP= 5.21D-01
 IDIUse=3 WtCom= 9.03D-01 WtEn= 9.71D-02
 Coeff-Com:  0.530D-01 0.446D+00 0.501D+00
 Coeff-En:   0.000D+00 0.000D+00 0.100D+01
 Coeff:      0.478D-01 0.403D+00 0.550D+00
 Gap=     0.145 Goal=   None    Shift=    0.000
 Gap=     0.223 Goal=   None    Shift=    0.000
 RMSDP=9.50D-04 MaxDP=6.56D-02 DE=-4.04D-01 OVMax= 1.09D-01

 Cycle   4  Pass 1  IDiag  1:
 RMSU=  6.29D-04    CP:  9.87D-01  7.40D-01  5.41D-01
 E= -1467.53757024220     Delta-E=       -0.071238890563 Rises=F Damp=F
 DIIS: error= 2.99D-03 at cycle   4 NSaved=   4.
 NSaved= 4 IEnMin= 4 EnMin= -1467.53757024220     IErMin= 4 ErrMin= 2.99D-03
 ErrMax= 2.99D-03  0.00D+00 EMaxC= 1.00D-01 BMatC= 4.74D-02 BMatP= 3.54D-01
 IDIUse=3 WtCom= 9.70D-01 WtEn= 2.99D-02
 Coeff-Com: -0.114D-01 0.658D-01 0.287D+00 0.659D+00
 Coeff-En:   0.000D+00 0.000D+00 0.110D+00 0.890D+00
 Coeff:     -0.111D-01 0.638D-01 0.281D+00 0.666D+00
 Gap=     0.144 Goal=   None    Shift=    0.000
 Gap=     0.202 Goal=   None    Shift=    0.000
 RMSDP=3.21D-04 MaxDP=1.86D-02 DE=-7.12D-02 OVMax= 3.37D-02

 Cycle   5  Pass 1  IDiag  1:
 RMSU=  2.01D-04    CP:  9.86D-01  7.23D-01  6.56D-01  7.00D-01
 E= -1467.54749257532     Delta-E=       -0.009922333118 Rises=F Damp=F
 DIIS: error= 7.91D-04 at cycle   5 NSaved=   5.
 NSaved= 5 IEnMin= 5 EnMin= -1467.54749257532     IErMin= 5 ErrMin= 7.91D-04
 ErrMax= 7.91D-04  0.00D+00 EMaxC= 1.00D-01 BMatC= 4.00D-03 BMatP= 4.74D-02
 IDIUse=3 WtCom= 9.92D-01 WtEn= 7.91D-03
 Coeff-Com: -0.840D-02 0.146D-01 0.131D+00 0.370D+00 0.493D+00
 Coeff-En:   0.000D+00 0.000D+00 0.000D+00 0.000D+00 0.100D+01
 Coeff:     -0.833D-02 0.145D-01 0.130D+00 0.367D+00 0.497D+00
 Gap=     0.145 Goal=   None    Shift=    0.000
 Gap=     0.205 Goal=   None    Shift=    0.000
 RMSDP=1.09D-04 MaxDP=5.49D-03 DE=-9.92D-03 OVMax= 1.25D-02

 Cycle   6  Pass 1  IDiag  1:
 RMSU=  6.92D-05    CP:  9.85D-01  7.25D-01  6.52D-01  7.57D-01  6.24D-01
 E= -1467.54835870711     Delta-E=       -0.000866131790 Rises=F Damp=F
 DIIS: error= 2.41D-04 at cycle   6 NSaved=   6.
 NSaved= 6 IEnMin= 6 EnMin= -1467.54835870711     IErMin= 6 ErrMin= 2.41D-04
 ErrMax= 2.41D-04  0.00D+00 EMaxC= 1.00D-01 BMatC= 4.09D-04 BMatP= 4.00D-03
 IDIUse=3 WtCom= 9.98D-01 WtEn= 2.41D-03
 Coeff-Com: -0.279D-02 0.986D-03 0.365D-01 0.116D+00 0.273D+00 0.577D+00
 Coeff-En:   0.000D+00 0.000D+00 0.000D+00 0.000D+00 0.438D-01 0.956D+00
 Coeff:     -0.278D-02 0.984D-03 0.364D-01 0.115D+00 0.272D+00 0.578D+00
 Gap=     0.147 Goal=   None    Shift=    0.000
 Gap=     0.205 Goal=   None    Shift=    0.000
 RMSDP=3.59D-05 MaxDP=2.19D-03 DE=-8.66D-04 OVMax= 5.19D-03

 Cycle   7  Pass 1  IDiag  1:
 RMSU=  2.55D-05    CP:  9.85D-01  7.22D-01  6.58D-01  7.59D-01  6.70D-01
                    CP:  7.00D-01
 E= -1467.54845340268     Delta-E=       -0.000094695573 Rises=F Damp=F
 DIIS: error= 1.23D-04 at cycle   7 NSaved=   7.
 NSaved= 7 IEnMin= 7 EnMin= -1467.54845340268     IErMin= 7 ErrMin= 1.23D-04
 ErrMax= 1.23D-04  0.00D+00 EMaxC= 1.00D-01 BMatC= 6.75D-05 BMatP= 4.09D-04
 IDIUse=3 WtCom= 9.99D-01 WtEn= 1.23D-03
 Coeff-Com: -0.210D-04-0.245D-02-0.268D-02-0.146D-03 0.597D-01 0.329D+00
 Coeff-Com:  0.617D+00
 Coeff-En:   0.000D+00 0.000D+00 0.000D+00 0.000D+00 0.000D+00 0.699D-01
 Coeff-En:   0.930D+00
 Coeff:     -0.210D-04-0.245D-02-0.268D-02-0.146D-03 0.596D-01 0.329D+00
 Coeff:      0.617D+00
 Gap=     0.147 Goal=   None    Shift=    0.000
 Gap=     0.206 Goal=   None    Shift=    0.000
 RMSDP=1.50D-05 MaxDP=9.16D-04 DE=-9.47D-05 OVMax= 1.17D-03

 Cycle   8  Pass 1  IDiag  1:
 RMSU=  1.04D-05    CP:  9.85D-01  7.22D-01  6.58D-01  7.58D-01  7.04D-01
                    CP:  7.97D-01  8.10D-01
 E= -1467.54846975010     Delta-E=       -0.000016347418 Rises=F Damp=F
 DIIS: error= 3.09D-05 at cycle   8 NSaved=   8.
 NSaved= 8 IEnMin= 8 EnMin= -1467.54846975010     IErMin= 8 ErrMin= 3.09D-05
 ErrMax= 3.09D-05  0.00D+00 EMaxC= 1.00D-01 BMatC= 4.80D-06 BMatP= 6.75D-05
 IDIUse=1 WtCom= 1.00D+00 WtEn= 0.00D+00
 Coeff-Com:  0.412D-03-0.111D-02-0.539D-02-0.144D-01-0.161D-01 0.650D-01
 Coeff-Com:  0.214D+00 0.757D+00
 Coeff:      0.412D-03-0.111D-02-0.539D-02-0.144D-01-0.161D-01 0.650D-01
 Coeff:      0.214D+00 0.757D+00
 Gap=     0.147 Goal=   None    Shift=    0.000
 Gap=     0.205 Goal=   None    Shift=    0.000
 RMSDP=5.00D-06 MaxDP=5.40D-04 DE=-1.63D-05 OVMax= 1.24D-03

 Cycle   9  Pass 1  IDiag  1:
 RMSU=  4.11D-06    CP:  9.85D-01  7.22D-01  6.57D-01  7.61D-01  7.04D-01
                    CP:  8.26D-01  8.48D-01  9.23D-01
 E= -1467.54847123413     Delta-E=       -0.000001484032 Rises=F Damp=F
 DIIS: error= 2.73D-05 at cycle   9 NSaved=   9.
 NSaved= 9 IEnMin= 9 EnMin= -1467.54847123413     IErMin= 9 ErrMin= 2.73D-05
 ErrMax= 2.73D-05  0.00D+00 EMaxC= 1.00D-01 BMatC= 2.93D-06 BMatP= 4.80D-06
 IDIUse=1 WtCom= 1.00D+00 WtEn= 0.00D+00
 Coeff-Com:  0.315D-03-0.319D-03-0.293D-02-0.943D-02-0.256D-01-0.276D-01
 Coeff-Com: -0.124D-01 0.485D+00 0.593D+00
 Coeff:      0.315D-03-0.319D-03-0.293D-02-0.943D-02-0.256D-01-0.276D-01
 Coeff:     -0.124D-01 0.485D+00 0.593D+00
 Gap=     0.147 Goal=   None    Shift=    0.000
 Gap=     0.205 Goal=   None    Shift=    0.000
 RMSDP=3.39D-06 MaxDP=2.44D-04 DE=-1.48D-06 OVMax= 2.76D-04

 Cycle  10  Pass 1  IDiag  1:
 RMSU=  2.28D-06    CP:  9.85D-01  7.22D-01  6.57D-01  7.60D-01  7.08D-01
                    CP:  8.44D-01  8.90D-01  1.06D+00  8.70D-01
 E= -1467.54847189888     Delta-E=       -0.000000664749 Rises=F Damp=F
 DIIS: error= 1.35D-05 at cycle  10 NSaved=  10.
 NSaved=10 IEnMin=10 EnMin= -1467.54847189888     IErMin=10 ErrMin= 1.35D-05
 ErrMax= 1.35D-05  0.00D+00 EMaxC= 1.00D-01 BMatC= 5.13D-07 BMatP= 2.93D-06
 IDIUse=1 WtCom= 1.00D+00 WtEn= 0.00D+00
 Coeff-Com:  0.964D-04 0.980D-04-0.140D-03-0.155D-02-0.118D-01-0.313D-01
 Coeff-Com: -0.709D-01 0.110D+00 0.345D+00 0.660D+00
 Coeff:      0.964D-04 0.980D-04-0.140D-03-0.155D-02-0.118D-01-0.313D-01
 Coeff:     -0.709D-01 0.110D+00 0.345D+00 0.660D+00
 Gap=     0.147 Goal=   None    Shift=    0.000
 Gap=     0.206 Goal=   None    Shift=    0.000
 RMSDP=1.57D-06 MaxDP=1.16D-04 DE=-6.65D-07 OVMax= 3.01D-04

 Cycle  11  Pass 1  IDiag  1:
 RMSU=  9.57D-07    CP:  9.85D-01  7.22D-01  6.57D-01  7.60D-01  7.08D-01
                    CP:  8.51D-01  8.97D-01  1.15D+00  9.90D-01  8.46D-01
 E= -1467.54847205211     Delta-E=       -0.000000153231 Rises=F Damp=F
 DIIS: error= 6.51D-06 at cycle  11 NSaved=  11.
 NSaved=11 IEnMin=11 EnMin= -1467.54847205211     IErMin=11 ErrMin= 6.51D-06
 ErrMax= 6.51D-06  0.00D+00 EMaxC= 1.00D-01 BMatC= 1.06D-07 BMatP= 5.13D-07
 IDIUse=1 WtCom= 1.00D+00 WtEn= 0.00D+00
 Coeff-Com:  0.171D-05 0.779D-04 0.448D-03 0.864D-03-0.201D-02-0.102D-01
 Coeff-Com: -0.364D-01-0.218D-01 0.586D-01 0.362D+00 0.649D+00
 Coeff:      0.171D-05 0.779D-04 0.448D-03 0.864D-03-0.201D-02-0.102D-01
 Coeff:     -0.364D-01-0.218D-01 0.586D-01 0.362D+00 0.649D+00
 Gap=     0.147 Goal=   None    Shift=    0.000
 Gap=     0.205 Goal=   None    Shift=    0.000
 RMSDP=6.50D-07 MaxDP=4.39D-05 DE=-1.53D-07 OVMax= 1.11D-04

 Cycle  12  Pass 1  IDiag  1:
 RMSU=  4.39D-07    CP:  9.85D-01  7.22D-01  6.57D-01  7.60D-01  7.08D-01
                    CP:  8.52D-01  8.95D-01  1.16D+00  1.04D+00  9.91D-01
                    CP:  8.09D-01
 E= -1467.54847207826     Delta-E=       -0.000000026147 Rises=F Damp=F
 DIIS: error= 2.49D-06 at cycle  12 NSaved=  12.
 NSaved=12 IEnMin=12 EnMin= -1467.54847207826     IErMin=12 ErrMin= 2.49D-06
 ErrMax= 2.49D-06  0.00D+00 EMaxC= 1.00D-01 BMatC= 2.60D-08 BMatP= 1.06D-07
 IDIUse=1 WtCom= 1.00D+00 WtEn= 0.00D+00
 Coeff-Com: -0.114D-04 0.236D-04 0.305D-03 0.779D-03 0.586D-03-0.127D-02
 Coeff-Com: -0.120D-01-0.332D-01-0.303D-01 0.113D+00 0.406D+00 0.555D+00
 Coeff:     -0.114D-04 0.236D-04 0.305D-03 0.779D-03 0.586D-03-0.127D-02
 Coeff:     -0.120D-01-0.332D-01-0.303D-01 0.113D+00 0.406D+00 0.555D+00
 Gap=     0.147 Goal=   None    Shift=    0.000
 Gap=     0.205 Goal=   None    Shift=    0.000
 RMSDP=2.98D-07 MaxDP=2.09D-05 DE=-2.61D-08 OVMax= 2.55D-05

 Cycle  13  Pass 1  IDiag  1:
 RMSU=  1.89D-07    CP:  9.85D-01  7.22D-01  6.57D-01  7.60D-01  7.08D-01
                    CP:  8.53D-01  8.95D-01  1.17D+00  1.06D+00  1.05D+00
                    CP:  9.21D-01  8.36D-01
 E= -1467.54847208392     Delta-E=       -0.000000005655 Rises=F Damp=F
 DIIS: error= 1.02D-06 at cycle  13 NSaved=  13.
 NSaved=13 IEnMin=13 EnMin= -1467.54847208392     IErMin=13 ErrMin= 1.02D-06
 ErrMax= 1.02D-06  0.00D+00 EMaxC= 1.00D-01 BMatC= 4.36D-09 BMatP= 2.60D-08
 IDIUse=1 WtCom= 1.00D+00 WtEn= 0.00D+00
 Coeff-Com: -0.364D-05-0.104D-04 0.610D-04 0.205D-03 0.891D-03 0.270D-02
 Coeff-Com:  0.368D-02-0.998D-02-0.349D-01-0.310D-01 0.638D-01 0.319D+00
 Coeff-Com:  0.685D+00
 Coeff:     -0.364D-05-0.104D-04 0.610D-04 0.205D-03 0.891D-03 0.270D-02
 Coeff:      0.368D-02-0.998D-02-0.349D-01-0.310D-01 0.638D-01 0.319D+00
 Coeff:      0.685D+00
 Gap=     0.147 Goal=   None    Shift=    0.000
 Gap=     0.205 Goal=   None    Shift=    0.000
 RMSDP=1.25D-07 MaxDP=1.22D-05 DE=-5.66D-09 OVMax= 2.07D-05

 Cycle  14  Pass 1  IDiag  1:
 RMSU=  1.03D-07    CP:  9.85D-01  7.22D-01  6.57D-01  7.60D-01  7.08D-01
                    CP:  8.53D-01  8.95D-01  1.17D+00  1.06D+00  1.07D+00
                    CP:  9.54D-01  8.63D-01  8.40D-01
 E= -1467.54847208507     Delta-E=       -0.000000001158 Rises=F Damp=F
 DIIS: error= 5.38D-07 at cycle  14 NSaved=  14.
 NSaved=14 IEnMin=14 EnMin= -1467.54847208507     IErMin=14 ErrMin= 5.38D-07
 ErrMax= 5.38D-07  0.00D+00 EMaxC= 1.00D-01 BMatC= 8.76D-10 BMatP= 4.36D-09
 IDIUse=1 WtCom= 1.00D+00 WtEn= 0.00D+00
 Coeff-Com:  0.499D-06-0.117D-04-0.277D-04-0.439D-04 0.341D-03 0.164D-02
 Coeff-Com:  0.411D-02 0.156D-02-0.130D-01-0.394D-01-0.549D-01 0.370D-01
 Coeff-Com:  0.370D+00 0.693D+00
 Coeff:      0.499D-06-0.117D-04-0.277D-04-0.439D-04 0.341D-03 0.164D-02
 Coeff:      0.411D-02 0.156D-02-0.130D-01-0.394D-01-0.549D-01 0.370D-01
 Coeff:      0.370D+00 0.693D+00
 Gap=     0.147 Goal=   None    Shift=    0.000
 Gap=     0.205 Goal=   None    Shift=    0.000
 RMSDP=7.29D-08 MaxDP=4.73D-06 DE=-1.16D-09 OVMax= 5.94D-06

 Cycle  15  Pass 1  IDiag  1:
 RMSU=  3.42D-08    CP:  9.85D-01  7.22D-01  6.57D-01  7.60D-01  7.08D-01
                    CP:  8.53D-01  8.95D-01  1.17D+00  1.06D+00  1.08D+00
                    CP:  9.78D-01  9.46D-01  9.79D-01  7.87D-01
 E= -1467.54847208540     Delta-E=       -0.000000000323 Rises=F Damp=F
 DIIS: error= 1.28D-07 at cycle  15 NSaved=  15.
 NSaved=15 IEnMin=15 EnMin= -1467.54847208540     IErMin=15 ErrMin= 1.28D-07
 ErrMax= 1.28D-07  0.00D+00 EMaxC= 1.00D-01 BMatC= 5.80D-11 BMatP= 8.76D-10
 IDIUse=1 WtCom= 1.00D+00 WtEn= 0.00D+00
 Coeff-Com:  0.683D-06-0.207D-05-0.200D-04-0.472D-04-0.883D-05 0.220D-03
 Coeff-Com:  0.877D-03 0.215D-02 0.186D-03-0.824D-02-0.285D-01-0.346D-01
 Coeff-Com:  0.389D-01 0.225D+00 0.804D+00
 Coeff:      0.683D-06-0.207D-05-0.200D-04-0.472D-04-0.883D-05 0.220D-03
 Coeff:      0.877D-03 0.215D-02 0.186D-03-0.824D-02-0.285D-01-0.346D-01
 Coeff:      0.389D-01 0.225D+00 0.804D+00
 Gap=     0.147 Goal=   None    Shift=    0.000
 Gap=     0.205 Goal=   None    Shift=    0.000
 RMSDP=1.98D-08 MaxDP=1.22D-06 DE=-3.23D-10 OVMax= 1.83D-06

 Cycle  16  Pass 1  IDiag  1:
 RMSU=  1.36D-08    CP:  9.85D-01  7.22D-01  6.57D-01  7.60D-01  7.08D-01
                    CP:  8.53D-01  8.95D-01  1.17D+00  1.06D+00  1.08D+00
                    CP:  9.77D-01  9.53D-01  1.02D+00  8.77D-01  9.04D-01
 E= -1467.54847208541     Delta-E=       -0.000000000015 Rises=F Damp=F
 DIIS: error= 4.46D-08 at cycle  16 NSaved=  16.
 NSaved=16 IEnMin=16 EnMin= -1467.54847208541     IErMin=16 ErrMin= 4.46D-08
 ErrMax= 4.46D-08  0.00D+00 EMaxC= 1.00D-01 BMatC= 1.09D-11 BMatP= 5.80D-11
 IDIUse=1 WtCom= 1.00D+00 WtEn= 0.00D+00
 Coeff-Com:  0.673D-07 0.107D-05-0.412D-05-0.112D-04-0.527D-04-0.145D-03
 Coeff-Com: -0.247D-03 0.636D-03 0.187D-02 0.257D-02-0.344D-02-0.199D-01
 Coeff-Com: -0.341D-01-0.171D-01 0.322D+00 0.748D+00
 Coeff:      0.673D-07 0.107D-05-0.412D-05-0.112D-04-0.527D-04-0.145D-03
 Coeff:     -0.247D-03 0.636D-03 0.187D-02 0.257D-02-0.344D-02-0.199D-01
 Coeff:     -0.341D-01-0.171D-01 0.322D+00 0.748D+00
 Gap=     0.147 Goal=   None    Shift=    0.000
 Gap=     0.205 Goal=   None    Shift=    0.000
 RMSDP=7.94D-09 MaxDP=4.27D-07 DE=-1.46D-11 OVMax= 7.91D-07

 SCF Done:  E(UPBE1PBE) =  -1467.54847209     A.U. after   16 cycles
            NFock= 16  Conv=0.79D-08     -V/T= 2.0052
 <Sx>= 0.0000 <Sy>= 0.0000 <Sz>= 0.5000 <S**2>= 0.7550 S= 0.5025
 <L.S>=  0.00000000000    
 KE= 1.459895556917D+03 PE=-6.497719801673D+03 EE= 2.049121637464D+03
 Annihilation of the first spin contaminant:
 S**2 before annihilation     0.7550,   after     0.7500
 Leave Link  502 at Mon Jun 17 21:25:21 2019, MaxMem=  8053063680 cpu:               0.0 elap:             156.4
 (Enter /data2/g16/g16/l601.exe)
 Copying SCF densities to generalized density rwf, IOpCl= 1 IROHF=0.

 **********************************************************************

            Population analysis using the SCF Density.

 **********************************************************************

 Orbital symmetries:
 Alpha Orbitals:
       Occupied  (A) (A) (A) (A) (A) (A) (A) (A) (A) (A) (A) (A)
                 (A) (A) (A) (A) (A) (A) (A) (A) (A) (A) (A) (A)
                 (A) (A) (A) (A) (A) (A) (A) (A) (A) (A) (A) (A)
                 (A) (A) (A) (A) (A) (A) (A) (A) (A) (A) (A) (A)
                 (A) (A) (A) (A) (A) (A) (A) (A) (A) (A) (A) (A)
                 (A) (A) (A) (A) (A) (A) (A) (A) (A) (A) (A)
       Virtual   (A) (A) (A) (A) (A) (A) (A) (A) (A) (A) (A) (A)
                 (A) (A) (A) (A) (A) (A) (A) (A) (A) (A) (A) (A)
                 (A) (A) (A) (A) (A) (A) (A) (A) (A) (A) (A) (A)
                 (A) (A) (A) (A) (A) (A) (A) (A) (A) (A) (A) (A)
                 (A) (A) (A) (A) (A) (A) (A) (A) (A) (A) (A) (A)
                 (A) (A) (A) (A) (A) (A) (A) (A) (A) (A) (A) (A)
                 (A) (A) (A) (A) (A) (A) (A) (A) (A) (A) (A) (A)
                 (A) (A) (A) (A) (A) (A) (A) (A) (A) (A) (A) (A)
                 (A) (A) (A) (A) (A) (A) (A) (A) (A) (A) (A) (A)
                 (A) (A) (A) (A) (A) (A) (A) (A) (A) (A) (A) (A)
                 (A) (A) (A) (A) (A) (A) (A) (A) (A) (A) (A) (A)
                 (A) (A) (A) (A) (A) (A) (A) (A) (A) (A) (A) (A)
                 (A) (A) (A) (A) (A) (A) (A) (A) (A) (A) (A) (A)
                 (A) (A) (A) (A) (A) (A) (A) (A) (A) (A) (A) (A)
                 (A) (A) (A) (A) (A) (A) (A) (A) (A) (A) (A) (A)
                 (A) (A) (A) (A) (A) (A) (A) (A) (A) (A) (A) (A)
                 (A) (A) (A) (A) (A) (A) (A) (A) (A) (A) (A) (A)
                 (A) (A) (A) (A) (A) (A) (A) (A) (A) (A) (A) (A)
                 (A) (A) (A) (A) (A) (A) (A) (A) (A) (A) (A) (A)
                 (A) (A) (A) (A) (A) (A) (A) (A) (A) (A) (A) (A)
                 (A) (A) (A) (A) (A) (A) (A) (A) (A) (A) (A) (A)
                 (A) (A) (A) (A) (A) (A) (A) (A) (A) (A) (A) (A)
                 (A) (A) (A) (A) (A) (A) (A) (A) (A) (A) (A) (A)
                 (A) (A) (A) (A) (A) (A) (A) (A) (A) (A) (A) (A)
                 (A) (A) (A) (A) (A) (A) (A) (A) (A) (A) (A) (A)
                 (A) (A) (A) (A) (A) (A) (A) (A) (A) (A) (A) (A)
                 (A) (A) (A) (A) (A) (A) (A) (A) (A) (A) (A) (A)
                 (A) (A) (A) (A) (A) (A) (A) (A) (A) (A) (A) (A)
                 (A) (A) (A) (A) (A) (A) (A) (A) (A) (A) (A) (A)
                 (A) (A) (A) (A) (A) (A) (A) (A) (A) (A) (A) (A)
                 (A) (A) (A) (A) (A) (A) (A)
 Beta  Orbitals:
       Occupied  (A) (A) (A) (A) (A) (A) (A) (A) (A) (A) (A) (A)
                 (A) (A) (A) (A) (A) (A) (A) (A) (A) (A) (A) (A)
                 (A) (A) (A) (A) (A) (A) (A) (A) (A) (A) (A) (A)
                 (A) (A) (A) (A) (A) (A) (A) (A) (A) (A) (A) (A)
                 (A) (A) (A) (A) (A) (A) (A) (A) (A) (A) (A) (A)
                 (A) (A) (A) (A) (A) (A) (A) (A) (A) (A)
       Virtual   (A) (A) (A) (A) (A) (A) (A) (A) (A) (A) (A) (A)
                 (A) (A) (A) (A) (A) (A) (A) (A) (A) (A) (A) (A)
                 (A) (A) (A) (A) (A) (A) (A) (A) (A) (A) (A) (A)
                 (A) (A) (A) (A) (A) (A) (A) (A) (A) (A) (A) (A)
                 (A) (A) (A) (A) (A) (A) (A) (A) (A) (A) (A) (A)
                 (A) (A) (A) (A) (A) (A) (A) (A) (A) (A) (A) (A)
                 (A) (A) (A) (A) (A) (A) (A) (A) (A) (A) (A) (A)
                 (A) (A) (A) (A) (A) (A) (A) (A) (A) (A) (A) (A)
                 (A) (A) (A) (A) (A) (A) (A) (A) (A) (A) (A) (A)
                 (A) (A) (A) (A) (A) (A) (A) (A) (A) (A) (A) (A)
                 (A) (A) (A) (A) (A) (A) (A) (A) (A) (A) (A) (A)
                 (A) (A) (A) (A) (A) (A) (A) (A) (A) (A) (A) (A)
                 (A) (A) (A) (A) (A) (A) (A) (A) (A) (A) (A) (A)
                 (A) (A) (A) (A) (A) (A) (A) (A) (A) (A) (A) (A)
                 (A) (A) (A) (A) (A) (A) (A) (A) (A) (A) (A) (A)
                 (A) (A) (A) (A) (A) (A) (A) (A) (A) (A) (A) (A)
                 (A) (A) (A) (A) (A) (A) (A) (A) (A) (A) (A) (A)
                 (A) (A) (A) (A) (A) (A) (A) (A) (A) (A) (A) (A)
                 (A) (A) (A) (A) (A) (A) (A) (A) (A) (A) (A) (A)
                 (A) (A) (A) (A) (A) (A) (A) (A) (A) (A) (A) (A)
                 (A) (A) (A) (A) (A) (A) (A) (A) (A) (A) (A) (A)
                 (A) (A) (A) (A) (A) (A) (A) (A) (A) (A) (A) (A)
                 (A) (A) (A) (A) (A) (A) (A) (A) (A) (A) (A) (A)
                 (A) (A) (A) (A) (A) (A) (A) (A) (A) (A) (A) (A)
                 (A) (A) (A) (A) (A) (A) (A) (A) (A) (A) (A) (A)
                 (A) (A) (A) (A) (A) (A) (A) (A) (A) (A) (A) (A)
                 (A) (A) (A) (A) (A) (A) (A) (A) (A) (A) (A) (A)
                 (A) (A) (A) (A) (A) (A) (A) (A) (A) (A) (A) (A)
                 (A) (A) (A) (A) (A) (A) (A) (A) (A) (A) (A) (A)
                 (A) (A) (A) (A) (A) (A) (A) (A) (A) (A) (A) (A)
                 (A) (A) (A) (A) (A) (A) (A) (A)
 The electronic state is 2-A.
 Alpha  occ. eigenvalues --  -89.28802 -89.08191 -19.24748 -19.24222 -19.22627
 Alpha  occ. eigenvalues --  -14.48511 -10.29736 -10.29700 -10.29120 -10.28713
 Alpha  occ. eigenvalues --  -10.26126 -10.24856 -10.23320 -10.22846 -10.22568
 Alpha  occ. eigenvalues --  -10.22315  -8.22121  -8.04433  -6.15843  -6.15799
 Alpha  occ. eigenvalues --   -6.15685  -5.98274  -5.97898  -5.97174  -1.14719
 Alpha  occ. eigenvalues --   -1.13532  -1.04480  -0.93294  -0.85924  -0.84031
 Alpha  occ. eigenvalues --   -0.82244  -0.77237  -0.74912  -0.72102  -0.71235
 Alpha  occ. eigenvalues --   -0.70587  -0.64473  -0.62457  -0.58975  -0.56422
 Alpha  occ. eigenvalues --   -0.53157  -0.51829  -0.51305  -0.50749  -0.50208
 Alpha  occ. eigenvalues --   -0.48514  -0.47408  -0.46360  -0.46177  -0.45132
 Alpha  occ. eigenvalues --   -0.44652  -0.43959  -0.42781  -0.42440  -0.41666
 Alpha  occ. eigenvalues --   -0.40507  -0.40090  -0.39058  -0.38874  -0.36501
 Alpha  occ. eigenvalues --   -0.36363  -0.36185  -0.35749  -0.35656  -0.34540
 Alpha  occ. eigenvalues --   -0.33587  -0.31776  -0.28317  -0.27224  -0.26894
 Alpha  occ. eigenvalues --   -0.20150
 Alpha virt. eigenvalues --   -0.05450  -0.02450   0.00470   0.01072   0.02633
 Alpha virt. eigenvalues --    0.03410   0.03692   0.04585   0.04817   0.04990
 Alpha virt. eigenvalues --    0.05447   0.05804   0.06160   0.06289   0.06852
 Alpha virt. eigenvalues --    0.07843   0.08239   0.08374   0.09039   0.09323
 Alpha virt. eigenvalues --    0.09398   0.09650   0.10361   0.10762   0.11013
 Alpha virt. eigenvalues --    0.11377   0.11826   0.12673   0.13021   0.13695
 Alpha virt. eigenvalues --    0.14032   0.14406   0.14710   0.15020   0.15551
 Alpha virt. eigenvalues --    0.15981   0.16652   0.16764   0.16938   0.17749
 Alpha virt. eigenvalues --    0.18381   0.18717   0.19262   0.19436   0.19649
 Alpha virt. eigenvalues --    0.20000   0.20864   0.21244   0.22042   0.22540
 Alpha virt. eigenvalues --    0.23191   0.23227   0.23986   0.24654   0.25435
 Alpha virt. eigenvalues --    0.26126   0.26328   0.26738   0.27135   0.27726
 Alpha virt. eigenvalues --    0.27975   0.28400   0.29092   0.29228   0.29814
 Alpha virt. eigenvalues --    0.30408   0.30605   0.31477   0.31719   0.31788
 Alpha virt. eigenvalues --    0.32253   0.32962   0.33513   0.34556   0.34987
 Alpha virt. eigenvalues --    0.35588   0.36810   0.37733   0.38139   0.40460
 Alpha virt. eigenvalues --    0.41746   0.41945   0.42243   0.43500   0.44230
 Alpha virt. eigenvalues --    0.46117   0.47101   0.47569   0.48100   0.50222
 Alpha virt. eigenvalues --    0.50710   0.50920   0.51817   0.51942   0.52868
 Alpha virt. eigenvalues --    0.53635   0.54015   0.54574   0.55465   0.56158
 Alpha virt. eigenvalues --    0.57103   0.58098   0.58198   0.59852   0.60534
 Alpha virt. eigenvalues --    0.60951   0.61904   0.62689   0.63145   0.63786
 Alpha virt. eigenvalues --    0.64222   0.64886   0.65347   0.65909   0.66659
 Alpha virt. eigenvalues --    0.67813   0.68107   0.68712   0.70048   0.71029
 Alpha virt. eigenvalues --    0.72092   0.72839   0.73164   0.73920   0.74217
 Alpha virt. eigenvalues --    0.74769   0.75883   0.76467   0.77224   0.78385
 Alpha virt. eigenvalues --    0.79036   0.79798   0.80802   0.81882   0.82168
 Alpha virt. eigenvalues --    0.82580   0.83209   0.83821   0.84875   0.85668
 Alpha virt. eigenvalues --    0.86026   0.87072   0.87951   0.88385   0.88697
 Alpha virt. eigenvalues --    0.89214   0.89831   0.90422   0.90980   0.91209
 Alpha virt. eigenvalues --    0.91558   0.92967   0.94204   0.94836   0.95434
 Alpha virt. eigenvalues --    0.96379   0.97400   0.97938   0.98074   0.99609
 Alpha virt. eigenvalues --    0.99753   1.01895   1.02219   1.03466   1.04543
 Alpha virt. eigenvalues --    1.04625   1.07764   1.08619   1.09153   1.11953
 Alpha virt. eigenvalues --    1.12518   1.14635   1.15028   1.15844   1.16803
 Alpha virt. eigenvalues --    1.18668   1.20250   1.21728   1.22201   1.23587
 Alpha virt. eigenvalues --    1.25500   1.28974   1.30155   1.31616   1.31718
 Alpha virt. eigenvalues --    1.36490   1.37815   1.39586   1.40122   1.41436
 Alpha virt. eigenvalues --    1.44335   1.45426   1.45906   1.48025   1.48795
 Alpha virt. eigenvalues --    1.49144   1.50385   1.51529   1.53007   1.55960
 Alpha virt. eigenvalues --    1.57580   1.59490   1.62523   1.63119   1.63284
 Alpha virt. eigenvalues --    1.65577   1.65904   1.67005   1.68129   1.68446
 Alpha virt. eigenvalues --    1.69391   1.71032   1.72229   1.73204   1.74979
 Alpha virt. eigenvalues --    1.75642   1.76410   1.77647   1.78762   1.79221
 Alpha virt. eigenvalues --    1.79742   1.80575   1.80975   1.81810   1.82575
 Alpha virt. eigenvalues --    1.83898   1.84395   1.85113   1.85924   1.87144
 Alpha virt. eigenvalues --    1.88079   1.89677   1.90973   1.92978   1.94168
 Alpha virt. eigenvalues --    1.95325   1.95874   1.97929   1.98236   1.98847
 Alpha virt. eigenvalues --    1.99469   2.02292   2.03125   2.04316   2.05637
 Alpha virt. eigenvalues --    2.06425   2.07250   2.10400   2.12419   2.13448
 Alpha virt. eigenvalues --    2.14877   2.16280   2.16855   2.23809   2.26037
 Alpha virt. eigenvalues --    2.27907   2.28820   2.31768   2.32941   2.34303
 Alpha virt. eigenvalues --    2.36768   2.38756   2.39413   2.40045   2.41062
 Alpha virt. eigenvalues --    2.42786   2.44885   2.47361   2.48718   2.49724
 Alpha virt. eigenvalues --    2.53729   2.54627   2.54846   2.58076   2.58926
 Alpha virt. eigenvalues --    2.60568   2.63942   2.65291   2.66056   2.67434
 Alpha virt. eigenvalues --    2.70693   2.75253   2.75756   2.77519   2.80672
 Alpha virt. eigenvalues --    2.82464   2.82695   2.83216   2.83329   2.84201
 Alpha virt. eigenvalues --    2.84411   2.85331   2.86562   2.86999   2.88042
 Alpha virt. eigenvalues --    2.88418   2.89628   2.90940   2.93190   2.93585
 Alpha virt. eigenvalues --    2.94591   2.95554   2.96843   2.97863   2.98400
 Alpha virt. eigenvalues --    2.99268   3.02597   3.03486   3.03924   3.06716
 Alpha virt. eigenvalues --    3.08093   3.15668   3.18226   3.19634   3.20514
 Alpha virt. eigenvalues --    3.26176   3.28219   3.29734   3.31225   3.31475
 Alpha virt. eigenvalues --    3.34440   3.35836   3.37369   3.38365   3.41493
 Alpha virt. eigenvalues --    3.41987   3.42962   3.45176   3.48189   3.49885
 Alpha virt. eigenvalues --    3.53771   3.56377   3.59673   3.63660   3.64699
 Alpha virt. eigenvalues --    3.76390   3.94472   4.47185   4.57452   4.62173
 Alpha virt. eigenvalues --    4.64293   4.72437   4.73867   4.74734   4.86540
 Alpha virt. eigenvalues --    4.91299   5.03097   5.44584   5.81781   5.84477
 Alpha virt. eigenvalues --    6.08077  22.21659  22.63379  58.49220  58.49254
 Alpha virt. eigenvalues --   58.50385  58.50654  58.50888  58.55588  58.56055
 Alpha virt. eigenvalues --   58.56354  58.56634  58.56828  95.61774 106.32254
 Alpha virt. eigenvalues --  106.33254 106.39128
  Beta  occ. eigenvalues --  -89.28802 -89.08191 -19.24748 -19.24222 -19.21195
  Beta  occ. eigenvalues --  -14.47323 -10.29737 -10.29700 -10.29184 -10.28777
  Beta  occ. eigenvalues --  -10.26125 -10.24853 -10.23269 -10.22794 -10.22520
  Beta  occ. eigenvalues --  -10.22266  -8.22121  -8.04433  -6.15843  -6.15799
  Beta  occ. eigenvalues --   -6.15685  -5.98274  -5.97898  -5.97174  -1.14719
  Beta  occ. eigenvalues --   -1.10900  -1.04480  -0.92341  -0.85733  -0.83928
  Beta  occ. eigenvalues --   -0.82112  -0.77041  -0.73844  -0.71851  -0.71105
  Beta  occ. eigenvalues --   -0.70132  -0.64420  -0.62329  -0.58597  -0.55913
  Beta  occ. eigenvalues --   -0.53066  -0.51823  -0.51017  -0.50414  -0.48343
  Beta  occ. eigenvalues --   -0.47524  -0.47178  -0.46343  -0.46113  -0.44979
  Beta  occ. eigenvalues --   -0.44265  -0.43803  -0.42505  -0.41648  -0.41195
  Beta  occ. eigenvalues --   -0.40203  -0.40032  -0.38727  -0.37667  -0.36322
  Beta  occ. eigenvalues --   -0.36128  -0.35721  -0.35696  -0.34512  -0.33584
  Beta  occ. eigenvalues --   -0.32717  -0.31771  -0.28236  -0.26720  -0.26000
  Beta virt. eigenvalues --   -0.05451  -0.03810  -0.02412   0.00483   0.01078
  Beta virt. eigenvalues --    0.02655   0.03437   0.03730   0.04626   0.04908
  Beta virt. eigenvalues --    0.05021   0.05472   0.05846   0.06188   0.06314
  Beta virt. eigenvalues --    0.06919   0.07862   0.08297   0.08448   0.09065
  Beta virt. eigenvalues --    0.09364   0.09522   0.09711   0.10405   0.10810
  Beta virt. eigenvalues --    0.11034   0.11435   0.11922   0.12789   0.13109
  Beta virt. eigenvalues --    0.13753   0.14091   0.14446   0.14798   0.15078
  Beta virt. eigenvalues --    0.15881   0.16071   0.16699   0.16993   0.17204
  Beta virt. eigenvalues --    0.17886   0.18429   0.18820   0.19383   0.19604
  Beta virt. eigenvalues --    0.19786   0.20207   0.21011   0.21361   0.22137
  Beta virt. eigenvalues --    0.22709   0.23255   0.23309   0.24137   0.24961
  Beta virt. eigenvalues --    0.25582   0.26235   0.26416   0.26847   0.27234
  Beta virt. eigenvalues --    0.27774   0.28101   0.28545   0.29140   0.29378
  Beta virt. eigenvalues --    0.30199   0.30589   0.30973   0.31604   0.31868
  Beta virt. eigenvalues --    0.32087   0.32550   0.33050   0.33596   0.34627
  Beta virt. eigenvalues --    0.35099   0.35790   0.36846   0.37809   0.38227
  Beta virt. eigenvalues --    0.40498   0.41815   0.41997   0.42683   0.43535
  Beta virt. eigenvalues --    0.44399   0.46185   0.47233   0.47600   0.48140
  Beta virt. eigenvalues --    0.50328   0.50858   0.51026   0.51923   0.52031
  Beta virt. eigenvalues --    0.52910   0.53748   0.54125   0.54732   0.55529
  Beta virt. eigenvalues --    0.56238   0.57194   0.58177   0.58372   0.59953
  Beta virt. eigenvalues --    0.60650   0.61082   0.61935   0.62725   0.63319
  Beta virt. eigenvalues --    0.63936   0.64299   0.64947   0.65512   0.66067
  Beta virt. eigenvalues --    0.66732   0.67866   0.68415   0.68847   0.70288
  Beta virt. eigenvalues --    0.71284   0.72149   0.72948   0.73221   0.74001
  Beta virt. eigenvalues --    0.74445   0.74803   0.76007   0.76523   0.77300
  Beta virt. eigenvalues --    0.78588   0.79126   0.79976   0.80922   0.82075
  Beta virt. eigenvalues --    0.82248   0.82677   0.83277   0.83888   0.84941
  Beta virt. eigenvalues --    0.85745   0.86112   0.87181   0.87981   0.88449
  Beta virt. eigenvalues --    0.88736   0.89250   0.89893   0.90536   0.91060
  Beta virt. eigenvalues --    0.91278   0.91748   0.93122   0.94409   0.94934
  Beta virt. eigenvalues --    0.95497   0.96536   0.97545   0.98043   0.99338
  Beta virt. eigenvalues --    0.99663   0.99927   1.02116   1.02284   1.03589
  Beta virt. eigenvalues --    1.04630   1.04809   1.07818   1.08662   1.09338
  Beta virt. eigenvalues --    1.12336   1.12683   1.14660   1.15085   1.16012
  Beta virt. eigenvalues --    1.17071   1.18981   1.20598   1.22178   1.23319
  Beta virt. eigenvalues --    1.23962   1.25982   1.29444   1.30708   1.31799
  Beta virt. eigenvalues --    1.32345   1.36868   1.38142   1.39647   1.40199
  Beta virt. eigenvalues --    1.41500   1.44367   1.45622   1.46168   1.48213
  Beta virt. eigenvalues --    1.48905   1.49233   1.50437   1.51630   1.53038
  Beta virt. eigenvalues --    1.56139   1.57663   1.59603   1.62554   1.63140
  Beta virt. eigenvalues --    1.63307   1.65920   1.66099   1.67584   1.68307
  Beta virt. eigenvalues --    1.68461   1.69671   1.71094   1.72277   1.73320
  Beta virt. eigenvalues --    1.75065   1.75708   1.76536   1.77682   1.78818
  Beta virt. eigenvalues --    1.79266   1.79818   1.80661   1.81021   1.81873
  Beta virt. eigenvalues --    1.82719   1.84034   1.84468   1.85207   1.86069
  Beta virt. eigenvalues --    1.87284   1.88189   1.89788   1.91219   1.93136
  Beta virt. eigenvalues --    1.94268   1.95337   1.95899   1.98130   1.98405
  Beta virt. eigenvalues --    1.99123   1.99727   2.02610   2.03414   2.04512
  Beta virt. eigenvalues --    2.06007   2.06852   2.07663   2.10758   2.12850
  Beta virt. eigenvalues --    2.13580   2.15173   2.16327   2.17275   2.24635
  Beta virt. eigenvalues --    2.26092   2.28053   2.29969   2.31897   2.33036
  Beta virt. eigenvalues --    2.34430   2.36858   2.38761   2.39415   2.40224
  Beta virt. eigenvalues --    2.41384   2.43045   2.44990   2.47528   2.49234
  Beta virt. eigenvalues --    2.49881   2.53918   2.54925   2.55896   2.58583
  Beta virt. eigenvalues --    2.59030   2.60625   2.64031   2.65397   2.66126
  Beta virt. eigenvalues --    2.68282   2.70860   2.75376   2.76146   2.77733
  Beta virt. eigenvalues --    2.80894   2.82478   2.82725   2.83262   2.84211
  Beta virt. eigenvalues --    2.84319   2.85376   2.85916   2.86970   2.87295
  Beta virt. eigenvalues --    2.88292   2.89664   2.89771   2.91201   2.93234
  Beta virt. eigenvalues --    2.94648   2.95441   2.95817   2.96967   2.98090
  Beta virt. eigenvalues --    2.98456   2.99711   3.02800   3.03989   3.04401
  Beta virt. eigenvalues --    3.06808   3.08206   3.16038   3.19177   3.19845
  Beta virt. eigenvalues --    3.23908   3.26179   3.28221   3.30234   3.31273
  Beta virt. eigenvalues --    3.31548   3.34491   3.35846   3.37413   3.38382
  Beta virt. eigenvalues --    3.41574   3.42118   3.43021   3.45218   3.48308
  Beta virt. eigenvalues --    3.50011   3.53946   3.56413   3.59716   3.63769
  Beta virt. eigenvalues --    3.64719   3.76410   3.96176   4.47256   4.57514
  Beta virt. eigenvalues --    4.62173   4.64412   4.72512   4.73970   4.74840
  Beta virt. eigenvalues --    4.86667   4.91338   5.03101   5.46467   5.81791
  Beta virt. eigenvalues --    5.84477   6.10585  22.21659  22.63379  58.49219
  Beta virt. eigenvalues --   58.49253  58.50367  58.50617  58.50836  58.55634
  Beta virt. eigenvalues --   58.56102  58.56396  58.56676  58.56830  95.62702
  Beta virt. eigenvalues --  106.32255 106.33254 106.40269
          Condensed to atoms (all electrons):
               1          2          3          4          5          6
     1  O    8.669576  -0.017597  -0.085733  -0.001620   0.036912  -0.003840
     2  N   -0.017597   7.348315   0.090407  -0.064851  -0.020447   0.015892
     3  C   -0.085733   0.090407   5.432672   0.244321  -0.097343   0.018185
     4  C   -0.001620  -0.064851   0.244321   5.179615   0.606912  -0.034637
     5  C    0.036912  -0.020447  -0.097343   0.606912   5.388572   0.193975
     6  C   -0.003840   0.015892   0.018185  -0.034637   0.193975   5.228465
     7  S   -0.000766   0.004806   0.000333  -0.002430  -0.127743   0.259179
     8  C   -0.071692   0.067968  -0.140582  -0.053135   0.218725  -0.074534
     9  C   -0.016185  -0.090143   0.006659  -0.003214  -0.063597   0.008393
    10  C   -0.005944  -0.084990   0.017630  -0.009626  -0.080680   0.005475
    11  C   -0.001994  -0.103329   0.312964  -0.052144  -0.011237  -0.002300
    12  C   -0.007820  -0.092537   0.312578  -0.074279  -0.000203  -0.001700
    13  H   -0.000747   0.004555  -0.036192   0.406204  -0.050271  -0.001514
    14  H    0.000033  -0.001475   0.002455   0.022442  -0.081437   0.420113
    15  H    0.000144  -0.003572  -0.000044   0.005666  -0.063672   0.407704
    16  H   -0.001585   0.014091  -0.004438   0.004358   0.002882  -0.000879
    17  H   -0.000449   0.006867  -0.000349   0.001004  -0.006846   0.002174
    18  H    0.007548  -0.025390   0.001831  -0.000874   0.008279  -0.000960
    19  H    0.008068  -0.024594  -0.001382  -0.001336   0.018505  -0.001312
    20  H   -0.000673   0.004640  -0.000775   0.001488  -0.002583   0.001901
    21  H   -0.000119   0.006412   0.001974   0.000331  -0.005153   0.003910
    22  H    0.000030   0.004250  -0.053176  -0.006890   0.008329  -0.000695
    23  H   -0.000873   0.007078  -0.046716   0.000964   0.001740  -0.000048
    24  H    0.007392  -0.024040  -0.033936   0.015673  -0.002680   0.000069
    25  H    0.007607  -0.030760  -0.025157   0.015224  -0.001157   0.000016
    26  H   -0.000273   0.009477  -0.047631  -0.002880   0.000077  -0.000029
    27  H   -0.000589   0.010868  -0.061484  -0.003434   0.005206  -0.000506
    28  S   -0.000229   0.000324  -0.001352  -0.031370  -0.004123  -0.004511
    29  O    0.000296   0.003123  -0.002384   0.031699   0.008601   0.004696
    30  O    0.000172  -0.001899  -0.004765   0.024927   0.016214  -0.024480
    31  C    0.000013  -0.000020  -0.000589   0.003446   0.003818  -0.000343
    32  H   -0.000000  -0.000005   0.000031  -0.000144  -0.000383   0.000143
    33  H   -0.000000   0.000003   0.000021   0.000013   0.000046   0.000204
    34  H   -0.000000   0.000001  -0.000026  -0.000533   0.000164  -0.000421
               7          8          9         10         11         12
     1  O   -0.000766  -0.071692  -0.016185  -0.005944  -0.001994  -0.007820
     2  N    0.004806   0.067968  -0.090143  -0.084990  -0.103329  -0.092537
     3  C    0.000333  -0.140582   0.006659   0.017630   0.312964   0.312578
     4  C   -0.002430  -0.053135  -0.003214  -0.009626  -0.052144  -0.074279
     5  C   -0.127743   0.218725  -0.063597  -0.080680  -0.011237  -0.000203
     6  C    0.259179  -0.074534   0.008393   0.005475  -0.002300  -0.001700
     7  S   15.865657  -0.004086   0.003787  -0.000482  -0.000225   0.000889
     8  C   -0.004086   5.423333   0.322099   0.325637   0.018330   0.018042
     9  C    0.003787   0.322099   5.008659  -0.084824  -0.005436   0.004813
    10  C   -0.000482   0.325637  -0.084824   5.034557   0.005029  -0.005944
    11  C   -0.000225   0.018330  -0.005436   0.005029   5.034471  -0.081288
    12  C    0.000889   0.018042   0.004813  -0.005944  -0.081288   5.019944
    13  H    0.000007   0.012193  -0.000896  -0.001510  -0.000578   0.002662
    14  H   -0.042052   0.002702   0.000049  -0.001854  -0.000126  -0.000034
    15  H   -0.041336   0.007803  -0.000902   0.005731   0.000312  -0.000068
    16  H    0.000962  -0.064327   0.412638   0.009173   0.000178  -0.001513
    17  H    0.001042  -0.034560   0.399929  -0.004070   0.000140  -0.000133
    18  H    0.000011  -0.032538   0.412741  -0.003906  -0.000089   0.000047
    19  H    0.000016  -0.040639  -0.002897   0.415171  -0.000331   0.000119
    20  H   -0.000133  -0.038752  -0.003884   0.401258  -0.000074   0.000158
    21  H   -0.001104  -0.056121   0.008338   0.410039  -0.000850  -0.000099
    22  H    0.000012  -0.001289   0.000067  -0.001028   0.410402   0.008315
    23  H    0.000006  -0.001238   0.000172  -0.000078   0.405570  -0.002899
    24  H   -0.000012   0.000495   0.000002  -0.000314   0.411484  -0.003968
    25  H   -0.000033  -0.001997   0.000207  -0.000058  -0.004428   0.410316
    26  H   -0.000004  -0.000721  -0.000137   0.000160  -0.002173   0.406655
    27  H   -0.000050  -0.000286  -0.001620   0.000100   0.009099   0.412983
    28  S    0.310810   0.001931  -0.003214  -0.000203  -0.000931   0.002047
    29  O   -0.075173  -0.006425  -0.000960   0.000072   0.000314  -0.006055
    30  O   -0.083658  -0.002468   0.000696  -0.000063   0.001146   0.000407
    31  C   -0.052058  -0.000901   0.000182   0.000045   0.000060  -0.000185
    32  H   -0.000596   0.000121  -0.000063  -0.000002  -0.000001  -0.000006
    33  H    0.001483  -0.000037  -0.000002   0.000001  -0.000000  -0.000005
    34  H    0.002665   0.000117   0.000004  -0.000001  -0.000000   0.000008
              13         14         15         16         17         18
     1  O   -0.000747   0.000033   0.000144  -0.001585  -0.000449   0.007548
     2  N    0.004555  -0.001475  -0.003572   0.014091   0.006867  -0.025390
     3  C   -0.036192   0.002455  -0.000044  -0.004438  -0.000349   0.001831
     4  C    0.406204   0.022442   0.005666   0.004358   0.001004  -0.000874
     5  C   -0.050271  -0.081437  -0.063672   0.002882  -0.006846   0.008279
     6  C   -0.001514   0.420113   0.407704  -0.000879   0.002174  -0.000960
     7  S    0.000007  -0.042052  -0.041336   0.000962   0.001042   0.000011
     8  C    0.012193   0.002702   0.007803  -0.064327  -0.034560  -0.032538
     9  C   -0.000896   0.000049  -0.000902   0.412638   0.399929   0.412741
    10  C   -0.001510  -0.001854   0.005731   0.009173  -0.004070  -0.003906
    11  C   -0.000578  -0.000126   0.000312   0.000178   0.000140  -0.000089
    12  C    0.002662  -0.000034  -0.000068  -0.001513  -0.000133   0.000047
    13  H    0.508493   0.002130  -0.000026  -0.000041  -0.000001   0.000004
    14  H    0.002130   0.489272  -0.014208  -0.000034  -0.000017   0.000001
    15  H   -0.000026  -0.014208   0.530604   0.000088  -0.000045   0.000011
    16  H   -0.000041  -0.000034   0.000088   0.537186  -0.019200  -0.015041
    17  H   -0.000001  -0.000017  -0.000045  -0.019200   0.566256  -0.021026
    18  H    0.000004   0.000001   0.000011  -0.015041  -0.021026   0.521878
    19  H    0.000005   0.000003  -0.000033  -0.000007  -0.000252   0.001939
    20  H    0.000002   0.000020  -0.000039   0.000099   0.001237  -0.000159
    21  H   -0.000015  -0.000012  -0.000254  -0.000140   0.000072   0.000030
    22  H    0.000067   0.000004   0.000002  -0.000001   0.000000   0.000000
    23  H    0.000529   0.000001   0.000000  -0.000000  -0.000000   0.000000
    24  H    0.000018   0.000000  -0.000000  -0.000001   0.000000  -0.000002
    25  H   -0.000042  -0.000000   0.000000  -0.000005  -0.000000  -0.000009
    26  H    0.000172  -0.000001   0.000000   0.000008  -0.000000  -0.000000
    27  H   -0.000112  -0.000002   0.000000   0.000313   0.000010  -0.000013
    28  S    0.003532  -0.014325   0.002869  -0.000851  -0.000989   0.000382
    29  O   -0.000352   0.001044  -0.000796  -0.000043   0.000185  -0.000012
    30  O   -0.001048   0.011545  -0.001257   0.000062   0.000019  -0.000010
    31  C   -0.000117   0.000455  -0.000046   0.000032   0.000049  -0.000003
    32  H    0.000000   0.000005  -0.000001  -0.000000  -0.000000   0.000000
    33  H    0.000000  -0.000011   0.000000   0.000000   0.000000  -0.000000
    34  H    0.000001   0.000024  -0.000000   0.000000  -0.000000   0.000000
              19         20         21         22         23         24
     1  O    0.008068  -0.000673  -0.000119   0.000030  -0.000873   0.007392
     2  N   -0.024594   0.004640   0.006412   0.004250   0.007078  -0.024040
     3  C   -0.001382  -0.000775   0.001974  -0.053176  -0.046716  -0.033936
     4  C   -0.001336   0.001488   0.000331  -0.006890   0.000964   0.015673
[...]
     7  S   -0.019726   0.000387
     8  C    0.206832  -0.035392
     9  C    0.068853   0.023033
    10  C    0.030260   0.020470
    11  C    0.039520   0.020424
    12  C    0.061607   0.023723
    28  S    0.890381  -0.000081
    29  O   -0.511852   0.000001
    30  O   -0.568819  -0.000022
    31  C    0.149985  -0.000010
 Electronic spatial extent (au):  <R**2>=           4765.9601
 Charge=             -0.0000 electrons
 Dipole moment (field-independent basis, Debye):
    X=              4.1648    Y=              1.8403    Z=             -2.2461  Tot=              5.0771
 Quadrupole moment (field-independent basis, Debye-Ang):
   XX=           -107.1834   YY=           -109.0330   ZZ=           -116.3904
   XY=              5.2997   XZ=              7.1095   YZ=             -0.6329
 Traceless Quadrupole moment (field-independent basis, Debye-Ang):
   XX=              3.6855   YY=              1.8359   ZZ=             -5.5214
   XY=              5.2997   XZ=              7.1095   YZ=             -0.6329
 Octapole moment (field-independent basis, Debye-Ang**2):
  XXX=            184.5986  YYY=             -3.7830  ZZZ=              0.1812  XYY=            -13.8863
  XXY=             -8.5024  XXZ=             -9.9639  XZZ=              0.8361  YZZ=              5.9635
  YYZ=             -2.4532  XYZ=              0.5189
 Hexadecapole moment (field-independent basis, Debye-Ang**3):
 XXXX=          -3939.2893 YYYY=          -1372.1959 ZZZZ=           -688.1259 XXXY=            -21.0408
 XXXZ=            127.8936 YYYX=            -16.9249 YYYZ=              0.9865 ZZZX=            -10.4173
 ZZZY=             -2.5097 XXYY=           -931.7612 XXZZ=           -860.2281 YYZZ=           -351.7644
 XXYZ=             -4.0999 YYXZ=             -4.3113 ZZXY=             14.7127
 N-N= 1.521154135207D+03 E-N=-6.497719784461D+03  KE= 1.459895556917D+03
                          Isotropic Fermi Contact Couplings
        Atom                 a.u.       MegaHertz       Gauss      10(-4) cm-1
     1  O(17)              0.08645     -52.40681     -18.70005     -17.48103
     2  N(14)              0.10748      34.72827      12.39191      11.58411
     3  C(13)             -0.01455     -16.35436      -5.83564      -5.45523
     4  C(13)             -0.00019      -0.20988      -0.07489      -0.07001
     5  C(13)             -0.00035      -0.39820      -0.14209      -0.13283
     6  C(13)             -0.00072      -0.80916      -0.28873      -0.26991
     7  S(33)             -0.00001      -0.00444      -0.00158      -0.00148
     8  C(13)             -0.01481     -16.64554      -5.93954      -5.55235
     9  C(13)              0.01238      13.92268       4.96796       4.64411
    10  C(13)              0.01784      20.05508       7.15615       6.68966
    11  C(13)              0.01751      19.68706       7.02483       6.56690
    12  C(13)              0.01283      14.42013       5.14546       4.81004
    13  H(1)              -0.00031      -1.40012      -0.49960      -0.46703
    14  H(1)               0.00002       0.08255       0.02946       0.02754
    15  H(1)               0.00001       0.04586       0.01636       0.01530
    16  H(1)              -0.00039      -1.75796      -0.62728      -0.58639
    17  H(1)               0.00026       1.17254       0.41839       0.39112
    18  H(1)              -0.00052      -2.33704      -0.83391      -0.77955
    19  H(1)              -0.00049      -2.18313      -0.77899      -0.72821
    20  H(1)               0.00039       1.73634       0.61957       0.57918
    21  H(1)              -0.00033      -1.48492      -0.52986      -0.49532
    22  H(1)              -0.00034      -1.50096      -0.53558      -0.50067
    23  H(1)               0.00036       1.61911       0.57774       0.54008
    24  H(1)              -0.00047      -2.09783      -0.74856      -0.69976
    25  H(1)              -0.00051      -2.27685      -0.81244      -0.75947
    26  H(1)               0.00030       1.33692       0.47705       0.44595
    27  H(1)              -0.00040      -1.78977      -0.63863      -0.59700
    28  S(33)              0.00000       0.00052       0.00019       0.00018
    29  O(17)             -0.00001       0.00380       0.00136       0.00127
    30  O(17)             -0.00003       0.01880       0.00671       0.00627
    31  C(13)             -0.00000      -0.00543      -0.00194      -0.00181
    32  H(1)               0.00000       0.00106       0.00038       0.00035
    33  H(1)               0.00000       0.00038       0.00014       0.00013
    34  H(1)              -0.00000      -0.00057      -0.00021      -0.00019
 --------------------------------------------------------
       Center         ----  Spin Dipole Couplings  ----
                      3XX-RR        3YY-RR        3ZZ-RR
 --------------------------------------------------------
     1   Atom       -0.185024     -0.886047      1.071071
     2   Atom       -0.132999     -0.554210      0.687209
     3   Atom       -0.005497      0.011886     -0.006389
     4   Atom        0.004806     -0.005121      0.000315
     5   Atom        0.008472     -0.007184     -0.001288
     6   Atom        0.002282     -0.001430     -0.000851
     7   Atom        0.002277     -0.001282     -0.000995
     8   Atom        0.003263      0.004966     -0.008230
     9   Atom       -0.011010     -0.000873      0.011883
    10   Atom       -0.010029      0.019790     -0.009761
    11   Atom       -0.001032      0.002539     -0.001507
    12   Atom       -0.016929      0.015586      0.001343
    13   Atom        0.001786     -0.001061     -0.000725
    14   Atom        0.001461     -0.001213     -0.000248
    15   Atom        0.001227     -0.000686     -0.000541
    16   Atom        0.003359     -0.003384      0.000025
    17   Atom        0.000434      0.001924     -0.002359
    18   Atom       -0.002116      0.004387     -0.002271
    19   Atom       -0.004853      0.009715     -0.004862
    20   Atom       -0.001237      0.003892     -0.002655
    21   Atom       -0.005624      0.000540      0.005084
    22   Atom       -0.005789     -0.002145      0.007934
    23   Atom       -0.002711      0.003615     -0.000904
    24   Atom       -0.001792      0.003905     -0.002113
    25   Atom       -0.004870      0.009957     -0.005087
    26   Atom       -0.002835      0.005384     -0.002549
    27   Atom       -0.000433      0.001843     -0.001411
    28   Atom        0.001423     -0.000725     -0.000697
    29   Atom        0.001468     -0.000688     -0.000779
    30   Atom        0.001036     -0.000589     -0.000446
    31   Atom        0.000662     -0.000329     -0.000333
    32   Atom        0.000620     -0.000311     -0.000309
    33   Atom        0.000519     -0.000249     -0.000270
    34   Atom        0.000552     -0.000285     -0.000266
 --------------------------------------------------------
                        XY            XZ            YZ
 --------------------------------------------------------
     1   Atom       -0.310328      1.372868     -0.496097
     2   Atom       -0.181547      0.784038     -0.297091
     3   Atom       -0.008542     -0.001071      0.006571
     4   Atom       -0.006300     -0.007252      0.003031
     5   Atom        0.002644     -0.007489     -0.001299
     6   Atom        0.000988     -0.001786     -0.000405
     7   Atom        0.000897      0.000500      0.000184
     8   Atom        0.012688     -0.000876     -0.002600
     9   Atom        0.010152      0.007692      0.021513
    10   Atom       -0.010795      0.004074     -0.017637
    11   Atom        0.015172      0.013894      0.018652
    12   Atom       -0.003503     -0.001372     -0.023019
    13   Atom       -0.002812     -0.002841      0.001651
    14   Atom        0.000294     -0.001636     -0.000193
    15   Atom        0.001543     -0.001640     -0.000912
    16   Atom        0.003581      0.007062      0.002026
    17   Atom        0.005268      0.000572      0.001152
    18   Atom        0.005961      0.002200      0.007965
    19   Atom       -0.001665     -0.001152     -0.005198
    20   Atom        0.003299     -0.001015     -0.003083
    21   Atom        0.001127      0.000155     -0.007471
    22   Atom        0.000525      0.002754      0.005403
    23   Atom       -0.000986     -0.000126      0.004628
    24   Atom        0.005473      0.001936      0.006965
    25   Atom       -0.001458     -0.001341     -0.005321
    26   Atom       -0.003436     -0.000671      0.000340
    27   Atom       -0.005888      0.004809     -0.004370
    28   Atom       -0.000212     -0.000168      0.000026
    29   Atom       -0.000555      0.000341     -0.000082
    30   Atom       -0.000407     -0.000557      0.000137
    31   Atom       -0.000043     -0.000046      0.000003
    32   Atom        0.000035      0.000068      0.000003
    33   Atom       -0.000125     -0.000021      0.000003
    34   Atom        0.000020     -0.000131     -0.000002
 --------------------------------------------------------


 ---------------------------------------------------------------------------------
              Anisotropic Spin Dipole Couplings in Principal Axis System
 ---------------------------------------------------------------------------------

       Atom             a.u.   MegaHertz   Gauss  10(-4) cm-1        Axes

              Baa    -1.0674    77.236    27.560    25.763  0.8262 -0.1018 -0.5540
     1 O(17)  Bbb    -1.0012    72.447    25.851    24.166  0.1916  0.9757  0.1066
              Bcc     2.0686  -149.683   -53.410   -49.929  0.5297 -0.1943  0.8256
 
              Baa    -0.6223   -24.000    -8.564    -8.006  0.1805  0.9770  0.1136
     2 N(14)  Bbb    -0.6076   -23.433    -8.361    -7.816  0.8420 -0.0938 -0.5313
              Bcc     1.2299    47.433    16.925    15.822  0.5085 -0.1915  0.8395
 
              Baa    -0.0101    -1.354    -0.483    -0.452  0.6822  0.4399 -0.5840
     3 C(13)  Bbb    -0.0071    -0.951    -0.339    -0.317  0.6415  0.0232  0.7668
              Bcc     0.0172     2.305     0.822     0.769 -0.3509  0.8978  0.2663
 
              Baa    -0.0082    -1.103    -0.394    -0.368  0.4750  0.8751  0.0928
     4 C(13)  Bbb    -0.0046    -0.615    -0.219    -0.205  0.4326 -0.3240  0.8414
              Bcc     0.0128     1.718     0.613     0.573  0.7664 -0.3595 -0.5324
 
              Baa    -0.0076    -1.023    -0.365    -0.341 -0.1513  0.9882  0.0238
     5 C(13)  Bbb    -0.0053    -0.717    -0.256    -0.239  0.4685  0.0505  0.8820
              Bcc     0.0130     1.739     0.621     0.580  0.8704  0.1446 -0.4706
 
              Baa    -0.0017    -0.229    -0.082    -0.076 -0.4223  0.7288 -0.5389
     6 C(13)  Bbb    -0.0016    -0.218    -0.078    -0.073  0.1745  0.6488  0.7407
              Bcc     0.0033     0.447     0.159     0.149  0.8895  0.2188 -0.4012
 
              Baa    -0.0015    -0.062    -0.022    -0.021 -0.2105  0.9672 -0.1424
     7 S(33)  Bbb    -0.0011    -0.044    -0.016    -0.015 -0.1749  0.1061  0.9788
              Bcc     0.0026     0.105     0.038     0.035  0.9618  0.2310  0.1469
 
              Baa    -0.0097    -1.298    -0.463    -0.433 -0.4866  0.5433  0.6841
     8 C(13)  Bbb    -0.0074    -0.994    -0.355    -0.332  0.5527 -0.4149  0.7227
              Bcc     0.0171     2.292     0.818     0.764  0.6765  0.7298 -0.0984
 
              Baa    -0.0193    -2.596    -0.926    -0.866 -0.5582  0.7411 -0.3730
     9 C(13)  Bbb    -0.0121    -1.629    -0.581    -0.543  0.7816  0.3190 -0.5360
              Bcc     0.0315     4.225     1.508     1.409  0.2782  0.5907  0.7574
 
              Baa    -0.0181    -2.434    -0.869    -0.812  0.1644  0.4540  0.8757
    10 C(13)  Bbb    -0.0131    -1.757    -0.627    -0.586  0.9491  0.1690 -0.2658
              Bcc     0.0312     4.191     1.495     1.398 -0.2687  0.8748 -0.4031
 
              Baa    -0.0183    -2.449    -0.874    -0.817 -0.0348 -0.6532  0.7564
    11 C(13)  Bbb    -0.0138    -1.853    -0.661    -0.618  0.8486 -0.4191 -0.3229
              Bcc     0.0321     4.303     1.535     1.435  0.5279  0.6306  0.5689
 
              Baa    -0.0196    -2.627    -0.937    -0.876  0.7778  0.3967  0.4875
    12 C(13)  Bbb    -0.0131    -1.753    -0.626    -0.585 -0.6272  0.4398  0.6429
              Bcc     0.0326     4.380     1.563     1.461 -0.0406  0.8058 -0.5908
 
              Baa    -0.0028    -1.497    -0.534    -0.499  0.6016  0.7708  0.2096
    13 H(1)   Bbb    -0.0025    -1.333    -0.475    -0.445  0.2733 -0.4451  0.8527
              Bcc     0.0053     2.830     1.010     0.944  0.7506 -0.4557 -0.4784
 
              Baa    -0.0013    -0.670    -0.239    -0.224  0.2554  0.7846  0.5649
    14 H(1)   Bbb    -0.0012    -0.656    -0.234    -0.219  0.4585 -0.6127  0.6437
              Bcc     0.0025     1.326     0.473     0.442  0.8512  0.0946 -0.5162
 
              Baa    -0.0015    -0.824    -0.294    -0.275 -0.4950  0.8687 -0.0193
    15 H(1)   Bbb    -0.0015    -0.810    -0.289    -0.270  0.3929  0.2436  0.8867
              Bcc     0.0031     1.634     0.583     0.545  0.7750  0.4313 -0.4619
 
              Baa    -0.0059    -3.127    -1.116    -1.043  0.6491 -0.4197 -0.6344
    16 H(1)   Bbb    -0.0043    -2.300    -0.821    -0.767  0.0630  0.8608 -0.5050
              Bcc     0.0102     5.426     1.936     1.810  0.7581  0.2878  0.5852
 
              Baa    -0.0042    -2.242    -0.800    -0.748  0.7273 -0.6604  0.1867
    17 H(1)   Bbb    -0.0025    -1.317    -0.470    -0.439 -0.2304  0.0213  0.9729
              Bcc     0.0067     3.559     1.270     1.187  0.6465  0.7506  0.1367
 
              Baa    -0.0081    -4.340    -1.549    -1.448  0.3526 -0.6160  0.7045
    18 H(1)   Bbb    -0.0042    -2.250    -0.803    -0.751  0.8482 -0.1076 -0.5186
              Bcc     0.0124     6.590     2.352     2.198  0.3952  0.7804  0.4846
 
              Baa    -0.0075    -4.013    -1.432    -1.339  0.5267  0.2917  0.7985
    19 H(1)   Bbb    -0.0040    -2.109    -0.752    -0.703  0.8467 -0.0959 -0.5234
              Bcc     0.0115     6.121     2.184     2.042 -0.0761  0.9517 -0.2975
 
              Baa    -0.0039    -2.098    -0.749    -0.700 -0.1928  0.4291  0.8824
    20 H(1)   Bbb    -0.0027    -1.436    -0.512    -0.479  0.8954 -0.2909  0.3371
              Bcc     0.0066     3.534     1.261     1.179  0.4013  0.8551 -0.3281
 
              Baa    -0.0064    -3.398    -1.212    -1.133  0.8083 -0.4880 -0.3293
    21 H(1)   Bbb    -0.0043    -2.279    -0.813    -0.760  0.5878  0.6369  0.4989
              Bcc     0.0106     5.677     2.026     1.894 -0.0337 -0.5968  0.8017
 
              Baa    -0.0064    -3.432    -1.225    -1.145  0.9416  0.2133 -0.2607
    22 H(1)   Bbb    -0.0043    -2.296    -0.819    -0.766 -0.2945  0.8970 -0.3297
              Bcc     0.0107     5.728     2.044     1.911  0.1635  0.3872  0.9074
 
              Baa    -0.0039    -2.104    -0.751    -0.702 -0.3383 -0.5231  0.7823
    23 H(1)   Bbb    -0.0026    -1.414    -0.504    -0.472  0.9361 -0.1015  0.3369
              Bcc     0.0066     3.518     1.255     1.173 -0.0968  0.8462  0.5240
 
              Baa    -0.0073    -3.869    -1.381    -1.291  0.3710 -0.6159  0.6950
    24 H(1)   Bbb    -0.0037    -1.995    -0.712    -0.665  0.8351 -0.1061 -0.5398
              Bcc     0.0110     5.864     2.092     1.956  0.4062  0.7807  0.4749
 
              Baa    -0.0078    -4.164    -1.486    -1.389  0.5120  0.2848  0.8104
    25 H(1)   Bbb    -0.0039    -2.083    -0.743    -0.695  0.8569 -0.1037 -0.5049
              Bcc     0.0117     6.247     2.229     2.084 -0.0598  0.9530 -0.2971
 
              Baa    -0.0042    -2.263    -0.808    -0.755  0.9030  0.3119  0.2955
    26 H(1)   Bbb    -0.0024    -1.292    -0.461    -0.431 -0.2584 -0.1552  0.9535
              Bcc     0.0067     3.555     1.269     1.186 -0.3432  0.9374  0.0596
 
              Baa    -0.0060    -3.181    -1.135    -1.061  0.7808  0.2750 -0.5610
    27 H(1)   Bbb    -0.0043    -2.295    -0.819    -0.766  0.2350  0.7028  0.6715
              Bcc     0.0103     5.476     1.954     1.826 -0.5789  0.6561 -0.4841
 
              Baa    -0.0007    -0.031    -0.011    -0.010  0.0751  0.9655 -0.2492
    28 S(33)  Bbb    -0.0007    -0.029    -0.010    -0.010  0.1002  0.2414  0.9652
              Bcc     0.0015     0.060     0.021     0.020  0.9921 -0.0975 -0.0786
 
              Baa    -0.0008     0.060     0.021     0.020 -0.1700 -0.1022  0.9801
    29 O(17)  Bbb    -0.0008     0.060     0.021     0.020  0.2139  0.9671  0.1380
              Bcc     0.0017    -0.120    -0.043    -0.040  0.9620 -0.2331  0.1425
 
              Baa    -0.0007     0.050     0.018     0.017  0.2047  0.9755 -0.0802
    30 O(17)  Bbb    -0.0006     0.046     0.016     0.015  0.3192  0.0109  0.9476
              Bcc     0.0013    -0.095    -0.034    -0.032  0.9253 -0.2196 -0.3091
 
              Baa    -0.0003    -0.045    -0.016    -0.015  0.0381 -0.1650  0.9856
    31 C(13)  Bbb    -0.0003    -0.044    -0.016    -0.015  0.0500  0.9854  0.1630
              Bcc     0.0007     0.089     0.032     0.030  0.9980 -0.0430 -0.0458
 
              Baa    -0.0003    -0.168    -0.060    -0.056 -0.0681 -0.1179  0.9907
    32 H(1)   Bbb    -0.0003    -0.167    -0.059    -0.056 -0.0456  0.9923  0.1150
              Bcc     0.0006     0.334     0.119     0.112  0.9966  0.0374  0.0730
 
              Baa    -0.0003    -0.144    -0.051    -0.048  0.0242 -0.0179  0.9995
    33 H(1)   Bbb    -0.0003    -0.144    -0.051    -0.048  0.1569  0.9875  0.0139
              Bcc     0.0005     0.288     0.103     0.096  0.9873 -0.1565 -0.0267
 
              Baa    -0.0003    -0.153    -0.055    -0.051  0.1496 -0.4347  0.8881
    34 H(1)   Bbb    -0.0003    -0.152    -0.054    -0.051  0.0461  0.9003  0.4329
              Bcc     0.0006     0.306     0.109     0.102  0.9877  0.0238 -0.1547
 

 ---------------------------------------------------------------------------------

 No NMR shielding tensors so no spin-rotation constants.
 Leave Link  601 at Mon Jun 17 21:25:21 2019, MaxMem=  8053063680 cpu:               0.0 elap:               0.4
 (Enter /data2/g16/g16/l9999.exe)
 1\1\GINC-CU09\SP\UPBE1PBE\Gen\C10H18N1O3S2(2)\ROOT\17-Jun-2019\0\\#p g
 en 6d pbe1pbe\\start preoptimized\\0,2\O,0,-3.670282,0.167849,1.042201
 \N,0,-2.642031,0.044669,0.314021\C,0,-2.170433,-1.267829,-0.171132\C,0
 ,-0.861883,-0.864692,-0.781539\C,0,-0.596204,0.439374,-0.648588\C,0,0.
 609745,1.120776,-1.194388\S,0,1.947167,1.450761,0.033285\C,0,-1.701706
 ,1.165435,0.091541\C,0,-1.282336,1.74591,1.444011\C,0,-2.386299,2.2384
 54,-0.762314\C,0,-3.153701,-1.827944,-1.20218\C,0,-2.015442,-2.229464,
 1.011431\H,0,-0.207333,-1.578874,-1.275313\H,0,1.066389,0.534649,-1.99
 3742\H,0,0.383748,2.119795,-1.583368\H,0,-0.746915,1.00364,2.041219\H,
 0,-0.632783,2.617465,1.309961\H,0,-2.181528,2.055491,1.985222\H,0,-3.2
 97792,2.573535,-0.254446\H,0,-1.733585,3.10783,-0.900469\H,0,-2.660898
 ,1.843568,-1.745186\H,0,-3.252685,-1.150858,-2.058764\H,0,-2.808384,-2
 .803933,-1.565876\H,0,-4.137869,-1.953748,-0.739938\H,0,-2.982951,-2.3
 41914,1.51177\H,0,-1.679777,-3.211313,0.658968\H,0,-1.284909,-1.85255,
 1.731499\S,0,2.753823,-0.529888,0.105276\O,0,2.327032,-1.20819,1.34812
 4\O,0,2.498239,-1.168862,-1.208559\C,0,4.510088,-0.18348,0.237946\H,0,
 4.669552,0.429018,1.129187\H,0,4.989413,-1.159187,0.349406\H,0,4.83039
 8,0.324514,-0.670995\\Version=AM64L-G16RevB.01\State=2-A\HF=-1467.5484
 721\S2=0.754997\S2-1=0.\S2A=0.750017\RMSD=7.945e-09\Dipole=1.63504,0.7
 265148,-0.8881092\Quadrupole=2.7485683,1.3799727,-4.128541,3.9465858,5
 .2672995,-0.4739332\PG=C01 [X(C10H18N1O3S2)]\\@


 YOU CAN LEAD A BOY TO COLLEGE....
 BUT YOU CANNOT MAKE HIM THINK....
           ELBERT HUBBARD
 Elapsed time:       0 days  0 hours  2 minutes 39.7 seconds.
 File lengths (MBytes):  RWF=    181 Int=      0 D2E=      0 Chk=     15 Scr=      1
 Normal termination of Gaussian 16 at Mon Jun 17 21:25:21 2019.
