 Entering Gaussian System, Link 0=g16
 AtFile(1): /home/malgo/Basis_sets/n07d_pbe0.gbs
            -H 0
             6-31G
             S   1 1.00       0.000000000000
                  0.4000000000D+00  0.10000000D+01
             P   1 1.00       0.000000000000
                  0.7500000000D+00  0.10000000D+01
             ****
             -He 0
             6-31+G**
             ****
             -Li 0
             6-31+G**
             ****
             -Be 0
             6-31+G**
             ****
             -B 0
             6-31G
             S   1 1.00       0.000000000000
                  0.7000000000D+01  0.1000000000D+01
             P   1 1.00       0.000000000000
                  0.3500000000D-01  0.1000000000D+01
             D   1 1.00
                  0.3430000000D+00  0.1000000000D+01
             ****
             -C 0
             6-31G
             S   1 1.00       0.000000000000
                  0.8700000000D+01  0.1000000000D+01
             P   1 1.00       0.000000000000
                  0.5000000000D-01  0.1000000000D+01
             D   1 1.00
                  0.8200000000D+00  0.1000000000D+01
             ****
             -N 0
             6-31G
             S   1 1.00       0.000000000000
                  0.1370000000D+02  0.1000000000D+01
             P   1 1.00       0.000000000000
                  0.5300000000D-01  0.1000000000D+01
             D   1 1.00       0.000000000000
                  0.1015000000D+01  0.1000000000D+01
             ****
             -O 0
             6-31G
             S   1 1.00
                  0.1600000000D+02  0.1000000000D+01
             P   1 1.00       0.000000000000
                  0.6500000000D-01  0.1000000000D+01
             D   1 1.00        0.000000000000
                  0.1190000000D+01  0.1000000000D+01
             D   1 1.00        0.000000000000
                  0.1800000000D+00  0.1000000000D+01
             ****
             -F 0
             6-31G
             S   1 1.00
                  0.1770000000D+02  0.1000000000D+01
             P   1 1.00       0.000000000000
                  0.8300000000D-01  0.1000000000D+01
             D   1 1.00       0.000000000000
                  1.3700000000D+00  0.1000000000D+01
             D   1 1.00       0.000000000000
                  0.2300000000D+00  0.1000000000D+01
             ****
             -Ne 0
             6-31+G**
             ****
             -Na 0
             6-31+G**
             ****
             -Mg 0
             6-31+G**
             ****
             -Al 0
             6-31G
             S   1 1.00      0.000000000000
                  0.3100000000D+01  0.1000000000D+01
             P   1 1.00      0.000000000000
                  0.1500000000D-01  0.1000000000D+01
             D   1 1.00      0.000000000000
                  0.1890000000D+00  0.1000000000D+01
             ****
             -Si 0
             6-31G
             S   1 1.00      0.000000000000
                  0.5000000000D+01  0.1000000000D+01
             P   1 1.00       0.000000000000
                  0.3300000000D-01  0.1000000000D+01
             D   1 1.0        0.000000000000
                  0.2750000000D+00  0.1000000000D+01
             ****
             -P  0
             6-31G
             S   1 1.00       0.000000000000
                  0.6300000000D+01  0.1000000000D+01
             P   1 1.00       0.000000000000
                  0.3500000000D-01  0.1000000000D+01
             D   1 1.00       0.000000000000
                  0.3730000000D+00  0.1000000000D+01
             ****
             -S  0
             6-31G
             S   1  1.00      0.000000000000
                  0.7500000000D+01  0.1000000000D+01
             P   1 1.00       0.000000000000
                  0.4100000000D-01  0.1000000000D+01
             D   1 1.00       0.000000000000
                  0.4790000000D+00  0.1000000000D+01
             ****
            -Cl 0
             6-31G
             S   1 1.00       0.000000000000
                  0.8500000000D+01  0.1000000000D+01
             P   1 1.00       0.000000000000
                  0.4800000000D-01  0.1000000000D+01
             D   1 1.00       0.000000000000
                  0.6000000000D+00  0.1000000000D+01
             D   1 1.00       0.000000000000
                  0.1960000000D+00  0.1000000000D+01
             ****
            -Br 0
             S   3 1.00       0.000000000000
                  0.4721881000D+01  0.1749732514D+00
                  0.2257555000D+01 -0.7074172290D+00
                  0.3896080000D+00  0.1258999543D+01
             S   1 1.00       0.000000000000
                  0.1471340000D+00  0.1000000000D+01
             P   3 1.00       0.000000000000
                  0.1896942000D+01 -0.2464576731D+00
                  0.9108990000D+00  0.3623179892D+00
                  0.3168550000D+00  0.8338469725D+00
             P   1 1.00       0.000000000000
                  0.1095030000D+00  0.1000000000D+01
             P   1 1.00       0.000000000000
                  0.3609700000D-01  0.1000000000D+01
             D   1 1.00
                  0.4750000000D+00  0.1000000000D+01
             D   1 1.00
                  0.1280000000D+00  0.1000000000D+01
             ****
            -I   0
             S   3 1.00       0.000000000000
                  0.2122765000D+01  0.2063429899D+01
                  0.1770481000D+01 -0.2869526473D+01
                  0.3130840000D+00  0.1404747074D+01
             S   1 1.00       0.000000000000
                  0.1320000000D+00  0.1000000000D+01
             P   3 1.00       0.000000000000
                  0.2432887000D+01  0.7732753148D+00
                  0.2137249000D+01 -0.1020833156D+01
                  0.3145460000D+00  0.1095666871D+01
             P   1 1.00       0.000000000000
                  0.1049450000D+00  0.1000000000D+01
             P   1 1.00       0.000000000000
                  0.3264100000D-01  0.1000000000D+01
             D   1 1.00
                  0.300000000          1.00000000
             D   1 1.00
                  0.090000000          1.00000000
             ****
             -Zn 0
             SP   6 1.00       0.000000000000
                  0.6936492000D+02 -0.4440098182D-02 -0.7689261805D-02
                  0.2362082000D+02  0.7505253308D-01 -0.2997981924D-01
                  0.1018471000D+02  0.2533111104D+00  0.7082410821D-01
                  0.4334082000D+01 -0.2881897118D+00  0.4046140897D+00
                  0.1810918000D+01 -0.7267052298D+00  0.4882324876D+00
                  0.7148410000D+00 -0.2133439088D+00  0.1751969956D+00
             SP   3 1.00       0.000000000000
                  0.2823842000D+01  0.4898545031D-01 -0.1586762981D+00
                  0.1039543000D+01  0.2592794075D+00  0.8379326898D-01
                  0.1432640000D+00 -0.1115711463D+01  0.9840546881D+00
             SP   1 1.00       0.000000000000
                  0.4929600000D-01  0.1000000000D+01  0.1000000000D+01
             S    1 1.00       0.000000000000
                  0.1620000000D+00  0.1000000000D+01
             D    3 1.00       0.000000000000
                  0.3370764000D+02  0.9262647815D-01
                  0.9061106000D+01  0.4002979920D+00
                  0.2738383000D+01  0.6896607863D+00
             D    1 1.00
                  0.2440000000D+01  0.1000000000D+01
             D    1 1.00       0.000000000000
                  0.7302940000D+00  0.1000000000D+01
             D    1 1.00       0.000000000000
                  0.1620000000D+00  0.1000000000D+01
            ****
 Initial command:
 /data2/g16/g16/l1.exe "/tmp/Gau-27407.inp" -scrdir="/tmp/"
 Entering Link 1 = /data2/g16/g16/l1.exe PID=     27408.
  
 Copyright (c) 1988-2017, Gaussian, Inc.  All Rights Reserved.
  
 This is part of the Gaussian(R) 16 program.  It is based on
 the Gaussian(R) 09 system (copyright 2009, Gaussian, Inc.),
 the Gaussian(R) 03 system (copyright 2003, Gaussian, Inc.),
 the Gaussian(R) 98 system (copyright 1998, Gaussian, Inc.),
 the Gaussian(R) 94 system (copyright 1995, Gaussian, Inc.),
 the Gaussian 92(TM) system (copyright 1992, Gaussian, Inc.),
 the Gaussian 90(TM) system (copyright 1990, Gaussian, Inc.),
 the Gaussian 88(TM) system (copyright 1988, Gaussian, Inc.),
 the Gaussian 86(TM) system (copyright 1986, Carnegie Mellon
 University), and the Gaussian 82(TM) system (copyright 1983,
 Carnegie Mellon University). Gaussian is a federally registered
 trademark of Gaussian, Inc.
  
 This software contains proprietary and confidential information,
 including trade secrets, belonging to Gaussian, Inc.
  
 This software is provided under written license and may be
 used, copied, transmitted, or stored only in accord with that
 written license.
  
 The following legend is applicable only to US Government
 contracts under FAR:
  
                    RESTRICTED RIGHTS LEGEND
  
 Use, reproduction and disclosure by the US Government is
 subject to restrictions as set forth in subparagraphs (a)
 and (c) of the Commercial Computer Software - Restricted
 Rights clause in FAR 52.227-19.
  
 Gaussian, Inc.
 340 Quinnipiac St., Bldg. 40, Wallingford CT 06492
  
  
 ---------------------------------------------------------------
 Warning -- This program may not be used in any manner that
 competes with the business of Gaussian, Inc. or will provide
 assistance to any competitor of Gaussian, Inc.  The licensee
 of this program is prohibited from giving any competitor of
 Gaussian, Inc. access to this program.  By using this program,
 the user acknowledges that Gaussian, Inc. is engaged in the
 business of creating and licensing software in the field of
 computational chemistry and represents and warrants to the
 licensee that it is not a competitor of Gaussian, Inc. and that
 it will not use this program in any manner prohibited above.
 ---------------------------------------------------------------
  

 Cite this work as:
 Gaussian 16, Revision B.01,
 M. J. Frisch, G. W. Trucks, H. B. Schlegel, G. E. Scuseria, 
 M. A. Robb, J. R. Cheeseman, G. Scalmani, V. Barone, 
 G. A. Petersson, H. Nakatsuji, X. Li, M. Caricato, A. V. Marenich, 
 J. Bloino, B. G. Janesko, R. Gomperts, B. Mennucci, H. P. Hratchian, 
 J. V. Ortiz, A. F. Izmaylov, J. L. Sonnenberg, D. Williams-Young, 
 F. Ding, F. Lipparini, F. Egidi, J. Goings, B. Peng, A. Petrone, 
 T. Henderson, D. Ranasinghe, V. G. Zakrzewski, J. Gao, N. Rega, 
 G. Zheng, W. Liang, M. Hada, M. Ehara, K. Toyota, R. Fukuda, 
 J. Hasegawa, M. Ishida, T. Nakajima, Y. Honda, O. Kitao, H. Nakai, 
 T. Vreven, K. Throssell, J. A. Montgomery, Jr., J. E. Peralta, 
 F. Ogliaro, M. J. Bearpark, J. J. Heyd, E. N. Brothers, K. N. Kudin, 
 V. N. Staroverov, T. A. Keith, R. Kobayashi, J. Normand, 
 K. Raghavachari, A. P. Rendell, J. C. Burant, S. S. Iyengar, 
 J. Tomasi, M. Cossi, J. M. Millam, M. Klene, C. Adamo, R. Cammi, 
 J. W. Ochterski, R. L. Martin, K. Morokuma, O. Farkas, 
 J. B. Foresman, and D. J. Fox, Gaussian, Inc., Wallingford CT, 2016.
 
 ******************************************
 Gaussian 16:  AM64L-G16RevB.01 20-Dec-2017
                17-Jun-2019 
 ******************************************
 %chk=MTN_PBE0_-0.25.chk
 %mem=60GB
 %nprocshared=12
 Will use up to   12 processors via shared memory.
 -----------------
 #p gen 6d pbe1pbe
 -----------------
 1/38=1,172=1/1;
 2/12=2,17=6,18=5,40=1/2;
 3/5=7,8=2,11=2,25=1,30=1,74=-13/1,2,3;
 4//1;
 5/5=2,38=5/2;
 6/7=2,8=2,9=2,10=2,28=1/1;
 99/5=1,9=1/99;
 Leave Link    1 at Mon Jun 17 21:25:23 2019, MaxMem=  8053063680 cpu:               0.0 elap:               0.1
 (Enter /data2/g16/g16/l101.exe)
 ------------------
 start preoptimized
 ------------------
 Symbolic Z-matrix:
 Charge =  0 Multiplicity = 2
 O                    -3.76148   0.20625   0.8742 
 N                    -2.60843   0.03507   0.38122 
 C                    -2.16083  -1.26783  -0.15673 
 C                    -0.88108  -0.85029  -0.81994 
 C                    -0.6058    0.44897  -0.65819 
 C                     0.60495   1.12558  -1.19919 
 S                     1.94237   1.44116   0.03329 
 C                    -1.69211   1.16543   0.11554 
 C                    -1.23434   1.76511   1.44881 
 C                    -2.4247    2.21925  -0.71911 
 C                    -3.2113   -1.80874  -1.13018 
 C                    -1.91944  -2.25826   0.98743 
 H                    -0.24093  -1.55967  -1.33771 
 H                     1.06159   0.53945  -2.00334 
 H                     0.38855   2.1294   -1.58337 
 H                    -0.66532   1.03724   2.03642 
 H                    -0.60398   2.64627   1.29076 
 H                    -2.11913   2.06989   2.01882 
 H                    -3.31699   2.54474  -0.17765 
 H                    -1.78639   3.09343  -0.89087 
 H                    -2.7329    1.80997  -1.68759 
 H                    -3.36789  -1.11726  -1.96276 
 H                    -2.89478  -2.77513  -1.53228 
 H                    -4.16187  -1.93935  -0.60074 
 H                    -2.84855  -2.40431   1.55017 
 H                    -1.59338  -3.22571   0.59177 
 H                    -1.14571  -1.88615   1.6691 
 S                     2.75862  -0.53469   0.11008 
 O                     2.33663  -1.21299   1.35292 
 O                     2.50784  -1.18326  -1.20376 
 C                     4.51009  -0.16908   0.24755 
 H                     4.65995   0.44822   1.13399 
 H                     4.99901  -1.13999   0.36381 
 H                     4.8304    0.33411  -0.6662 
 
 ITRead=  0  0  0  0  0  0  0  0  0  0  0  0  0  0  0  0  0  0  0  0
 ITRead=  0  0  0  0  0  0  0  0  0  0  0  0  0  0
 MicOpt= -1 -1 -1 -1 -1 -1 -1 -1 -1 -1 -1 -1 -1 -1 -1 -1 -1 -1 -1 -1
 MicOpt= -1 -1 -1 -1 -1 -1 -1 -1 -1 -1 -1 -1 -1 -1
 NAtoms=     34 NQM=       34 NQMF=       0 NMMI=      0 NMMIF=      0
                NMic=       0 NMicF=      0.
                    Isotopes and Nuclear Properties:
 (Nuclear quadrupole moments (NQMom) in fm**2, nuclear magnetic moments (NMagM)
  in nuclear magnetons)

  Atom         1           2           3           4           5           6           7           8           9          10
 IAtWgt=          16          14          12          12          12          12          32          12          12          12
 AtmWgt=  15.9949146  14.0030740  12.0000000  12.0000000  12.0000000  12.0000000  31.9720718  12.0000000  12.0000000  12.0000000
 NucSpn=           0           2           0           0           0           0           0           0           0           0
 AtZEff=   0.0000000   0.0000000   0.0000000   0.0000000   0.0000000   0.0000000   0.0000000   0.0000000   0.0000000   0.0000000
 NQMom=    0.0000000   2.0440000   0.0000000   0.0000000   0.0000000   0.0000000   0.0000000   0.0000000   0.0000000   0.0000000
 NMagM=    0.0000000   0.4037610   0.0000000   0.0000000   0.0000000   0.0000000   0.0000000   0.0000000   0.0000000   0.0000000
 AtZNuc=   8.0000000   7.0000000   6.0000000   6.0000000   6.0000000   6.0000000  16.0000000   6.0000000   6.0000000   6.0000000

  Atom        11          12          13          14          15          16          17          18          19          20
 IAtWgt=          12          12           1           1           1           1           1           1           1           1
 AtmWgt=  12.0000000  12.0000000   1.0078250   1.0078250   1.0078250   1.0078250   1.0078250   1.0078250   1.0078250   1.0078250
 NucSpn=           0           0           1           1           1           1           1           1           1           1
 AtZEff=   0.0000000   0.0000000   0.0000000   0.0000000   0.0000000   0.0000000   0.0000000   0.0000000   0.0000000   0.0000000
 NQMom=    0.0000000   0.0000000   0.0000000   0.0000000   0.0000000   0.0000000   0.0000000   0.0000000   0.0000000   0.0000000
 NMagM=    0.0000000   0.0000000   2.7928460   2.7928460   2.7928460   2.7928460   2.7928460   2.7928460   2.7928460   2.7928460
 AtZNuc=   6.0000000   6.0000000   1.0000000   1.0000000   1.0000000   1.0000000   1.0000000   1.0000000   1.0000000   1.0000000

  Atom        21          22          23          24          25          26          27          28          29          30
 IAtWgt=           1           1           1           1           1           1           1          32          16          16
 AtmWgt=   1.0078250   1.0078250   1.0078250   1.0078250   1.0078250   1.0078250   1.0078250  31.9720718  15.9949146  15.9949146
 NucSpn=           1           1           1           1           1           1           1           0           0           0
 AtZEff=   0.0000000   0.0000000   0.0000000   0.0000000   0.0000000   0.0000000   0.0000000   0.0000000   0.0000000   0.0000000
 NQMom=    0.0000000   0.0000000   0.0000000   0.0000000   0.0000000   0.0000000   0.0000000   0.0000000   0.0000000   0.0000000
 NMagM=    2.7928460   2.7928460   2.7928460   2.7928460   2.7928460   2.7928460   2.7928460   0.0000000   0.0000000   0.0000000
 AtZNuc=   1.0000000   1.0000000   1.0000000   1.0000000   1.0000000   1.0000000   1.0000000  16.0000000   8.0000000   8.0000000

  Atom        31          32          33          34
 IAtWgt=          12           1           1           1
 AtmWgt=  12.0000000   1.0078250   1.0078250   1.0078250
 NucSpn=           0           1           1           1
 AtZEff=   0.0000000   0.0000000   0.0000000   0.0000000
 NQMom=    0.0000000   0.0000000   0.0000000   0.0000000
 NMagM=    0.0000000   2.7928460   2.7928460   2.7928460
 AtZNuc=   6.0000000   1.0000000   1.0000000   1.0000000
 Leave Link  101 at Mon Jun 17 21:25:23 2019, MaxMem=  8053063680 cpu:               0.0 elap:               0.2
 (Enter /data2/g16/g16/l202.exe)
                          Input orientation:                          
 ---------------------------------------------------------------------
 Center     Atomic      Atomic             Coordinates (Angstroms)
 Number     Number       Type             X           Y           Z
 ---------------------------------------------------------------------
      1          8           0       -3.761482    0.206249    0.874201
      2          7           0       -2.608431    0.035069    0.381221
      3          6           0       -2.160833   -1.267829   -0.156732
      4          6           0       -0.881083   -0.850292   -0.819939
      5          6           0       -0.605804    0.448974   -0.658188
      6          6           0        0.604945    1.125576   -1.199188
      7         16           0        1.942367    1.441161    0.033285
      8          6           0       -1.692106    1.165435    0.115541
      9          6           0       -1.234336    1.765110    1.448811
     10          6           0       -2.424699    2.219254   -0.719114
     11          6           0       -3.211301   -1.808744   -1.130180
     12          6           0       -1.919442   -2.258264    0.987431
     13          1           0       -0.240933   -1.559674   -1.337713
     14          1           0        1.061589    0.539449   -2.003342
     15          1           0        0.388548    2.129395   -1.583368
     16          1           0       -0.665315    1.037240    2.036419
     17          1           0       -0.603983    2.646265    1.290761
     18          1           0       -2.119128    2.069891    2.018822
     19          1           0       -3.316992    2.544735   -0.177646
     20          1           0       -1.786385    3.093430   -0.890869
     21          1           0       -2.732898    1.809968   -1.687586
     22          1           0       -3.367885   -1.117258   -1.962764
     23          1           0       -2.894784   -2.775133   -1.532276
     24          1           0       -4.161869   -1.939348   -0.600738
     25          1           0       -2.848551   -2.404314    1.550170
     26          1           0       -1.593377   -3.225713    0.591768
     27          1           0       -1.145709   -1.886150    1.669099
     28         16           0        2.758623   -0.534688    0.110076
     29          8           0        2.336632   -1.212990    1.352924
     30          8           0        2.507839   -1.183262   -1.203759
     31          6           0        4.510088   -0.169080    0.247546
     32          1           0        4.659952    0.448218    1.133987
     33          1           0        4.999013   -1.139987    0.363806
     34          1           0        4.830398    0.334114   -0.666195
 ---------------------------------------------------------------------
                    Distance matrix (angstroms):
                    1          2          3          4          5
     1  O    0.000000
     2  N    1.265645   0.000000
     3  C    2.407863   1.478946   0.000000
     4  C    3.504724   2.282626   1.500647   0.000000
     5  C    3.516452   2.293949   2.370018   1.337922   0.000000
     6  C    4.920344   3.743352   3.803239   2.501232   1.488753
     7  S    5.896273   4.775763   4.920466   3.735053   2.820593
     8  C    2.403730   1.479177   2.492912   2.365594   1.513944
     9  C    3.024350   2.453758   3.554558   3.480279   2.562560
    10  C    2.894448   2.452582   3.541983   3.437300   2.538894
    11  C    2.894899   2.459153   1.530906   2.538660   3.479753
    12  C    3.078921   2.470136   1.532429   2.515385   3.429700
    13  H    4.517224   3.332114   2.272863   1.086786   2.151639
    14  H    5.626126   4.405631   4.130403   2.665670   2.144254
    15  H    5.192387   4.150626   4.480599   3.327660   2.160673
    16  H    3.409919   2.742212   3.515655   3.430468   2.758714
    17  H    4.012107   3.415175   4.454116   4.093623   2.937089
    18  H    2.735077   2.657377   3.984363   4.256617   3.476191
    19  H    2.602397   2.666986   3.984066   4.227576   3.460300
    20  H    3.918200   3.412850   4.438440   4.046918   2.905350
    21  H    3.192593   2.728685   3.484768   3.355445   2.726994
    22  H    3.155148   2.720091   2.177475   2.749819   3.432797
    23  H    3.928223   3.411848   2.168587   2.875314   4.049485
    24  H    2.634263   2.697357   2.156902   3.463762   4.284038
    25  H    2.847001   2.715638   2.162884   3.450120   4.248295
    26  H    4.069252   3.421603   2.171536   2.853577   4.005124
    27  H    3.442712   2.736653   2.178636   2.708937   3.340743
    28  S    6.606409   5.404018   4.980937   3.769880   3.588480
    29  O    6.279364   5.191869   4.744392   3.899561   3.932509
    30  O    6.749300   5.492969   4.785386   3.426803   3.557614
    31  C    8.303761   7.122700   6.772878   5.537897   5.232083
    32  H    8.428914   7.318930   7.150796   6.017227   5.562381
    33  H    8.878014   7.697679   7.179881   6.005057   5.914663
    34  H    8.729809   7.518157   7.190486   5.835021   5.437421
                    6          7          8          9         10
     6  C    0.000000
     7  S    1.845882   0.000000
     8  C    2.646988   3.645845   0.000000
     9  C    3.286922   3.492864   1.531918   0.000000
    10  C    3.256585   4.499200   1.530972   2.514579   0.000000
    11  C    4.814429   6.202889   3.564480   4.830323   4.124619
    12  C    4.754388   5.432284   3.540281   4.107284   4.818272
    13  H    2.818735   3.956191   3.412341   4.450366   4.408151
    14  H    1.094866   2.395142   3.530490   4.323295   4.077400
    15  H    1.096392   2.345546   2.853880   3.458405   2.944379
    16  H    3.477142   3.312960   2.181858   1.094926   3.476428
    17  H    3.158140   3.085032   2.181287   1.094878   2.745349
    18  H    4.320636   4.564362   2.150085   1.095747   2.758981
    19  H    4.294083   5.378032   2.151437   2.755110   1.093303
    20  H    3.112229   4.181823   2.176905   2.746506   1.095960
    21  H    3.442110   4.995550   2.179435   3.476304   1.095646
    22  H    4.625660   6.223222   3.512588   4.949638   3.683555
    23  H    5.251150   6.605009   4.437320   5.679593   5.081940
    24  H    5.698633   7.006534   4.031434   5.147243   4.508408
    25  H    5.652055   6.327836   4.017292   4.472143   5.167851
    26  H    5.193636   5.881590   4.418000   5.076588   5.661905
    27  H    4.512466   4.825256   3.467602   3.658973   4.918711
    28  S    3.018108   2.139194   4.764393   4.798438   5.927780
    29  O    3.870518   2.990219   4.839293   4.650816   6.224461
    30  O    2.991949   2.955949   4.989636   5.452788   6.011816
    31  C    4.361114   3.038417   6.345515   6.179202   7.397962
    32  H    4.727113   3.095602   6.473042   6.047805   7.534111
    33  H    5.184936   4.014306   7.081503   6.962145   8.220019
    34  H    4.331853   3.171048   6.621576   6.580425   7.496198
                   11         12         13         14         15
    11  C    0.000000
    12  C    2.520961   0.000000
    13  H    2.988008   2.951561   0.000000
    14  H    4.953182   5.065419   2.558504   0.000000
    15  H    5.354739   5.584566   3.750443   1.776877   0.000000
    16  H    4.960748   3.678798   4.278882   4.421500   3.925084
    17  H    5.701418   5.086929   4.972987   4.250167   3.084297
    18  H    5.113987   4.453826   5.288448   5.351357   4.389505
    19  H    4.457720   5.136083   5.258713   5.150370   3.984920
    20  H    5.110672   5.673301   4.923359   3.983889   2.477751
    21  H    3.692512   4.936389   4.205566   4.013982   3.139478
    22  H    1.093557   3.479013   3.219355   4.729330   4.979507
    23  H    1.093514   2.750885   2.925427   5.182783   5.902311
    24  H    1.095877   2.766309   4.007621   5.949474   6.182760
    25  H    2.769579   1.096015   3.981577   6.048337   6.391587
    26  H    2.755101   1.094909   2.885773   5.287711   6.110354
    27  H    3.479745   1.096268   3.156917   4.923669   5.390463
    28  S    6.229081   5.062090   3.484828   2.915515   3.947448
    29  O    6.107396   4.397766   3.742133   3.995159   4.856787
    30  O    5.753712   5.055468   2.777657   2.387196   3.950847
    31  C    8.012894   6.800807   5.197980   4.178595   5.061850
    32  H    8.495702   7.115824   5.844622   4.774869   5.334348
    33  H    8.371887   7.035941   5.525246   4.891544   5.978021
    34  H    8.335229   7.417226   5.454885   4.004253   4.877937
                   16         17         18         19         20
    16  H    0.000000
    17  H    1.774466   0.000000
    18  H    1.783326   1.777061   0.000000
    19  H    3.769087   3.086575   2.546532   0.000000
    20  H    3.748831   2.521416   3.102362   1.775531   0.000000
    21  H    4.328998   3.755293   3.765864   1.777911   1.782672
    22  H    5.285755   5.691106   5.250747   4.074240   4.623851
    23  H    5.678055   6.527547   6.056913   5.505840   6.006662
    24  H    5.295334   6.104438   5.206619   4.582557   5.572787
    25  H    4.104540   5.532967   4.557434   5.262877   6.108360
    26  H    4.595768   5.995633   5.509657   6.071319   6.493615
    27  H    2.985282   4.580327   4.089023   5.268556   5.635612
    28  S    4.231443   4.776986   5.849752   6.817531   5.901036
    29  O    3.813448   4.852312   5.574453   6.958923   6.370175
    30  O    5.049583   5.529136   6.509751   6.991389   6.068637
    31  C    5.607145   5.930277   7.217819   8.295105   7.182307
    32  H    5.433213   5.706575   7.026285   8.351491   7.256201
    33  H    6.294646   6.825578   7.981875   9.111876   8.095533
    34  H    6.164525   6.221593   7.649716   8.456092   7.172595
                   21         22         23         24         25
    21  H    0.000000
    22  H    3.007920   0.000000
    23  H    4.590586   1.776990   0.000000
    24  H    4.156990   1.778021   1.780956   0.000000
    25  H    5.315695   3.777158   3.105015   2.562694   0.000000
    26  H    5.643762   3.757671   2.531451   3.110298   1.780082
    27  H    5.239064   4.326626   3.754778   3.775210   1.783903
    28  S    6.235848   6.493855   6.299042   7.097291   6.083566
    29  O    6.639511   6.598823   6.175142   6.824581   5.323935
    30  O    6.054654   5.924912   5.641836   6.739459   6.145405
    31  C    7.753851   8.236927   8.049311   8.891359   7.800171
    32  H    8.029313   8.745670   8.635565   9.302380   8.042870
    33  H    8.526013   8.684378   8.281356   9.246139   8.036806
    34  H    7.773341   8.426115   8.372332   9.275440   8.448522
                   26         27         28         29         30
    26  H    0.000000
    27  H    1.776366   0.000000
    28  S    5.139411   4.415972   0.000000
    29  O    4.480556   3.560872   1.477444   0.000000
    30  O    4.920924   4.700615   1.486507   2.562581   0.000000
    31  C    6.834748   6.079242   1.794491   2.652455   2.672799
    32  H    7.272956   6.280232   2.372667   2.864500   3.571887
    33  H    6.918224   6.325991   2.334548   2.841119   2.943651
    34  H    7.451156   6.789479   2.376902   3.562196   2.825895
                   31         32         33         34
    31  C    0.000000
    32  H    1.090547   0.000000
    33  H    1.093263   1.797369   0.000000
    34  H    1.091204   1.811830   1.806186   0.000000
 Stoichiometry    C10H18NO3S2(2)
 Framework group  C1[X(C10H18NO3S2)]
 Deg. of freedom    96
 Full point group                 C1      NOp   1
 Largest Abelian subgroup         C1      NOp   1
 Largest concise Abelian subgroup C1      NOp   1
                         Standard orientation:                         
 ---------------------------------------------------------------------
 Center     Atomic      Atomic             Coordinates (Angstroms)
 Number     Number       Type             X           Y           Z
 ---------------------------------------------------------------------
      1          8           0       -3.759677    0.198248    0.883119
      2          7           0       -2.607497    0.029217    0.387369
      3          6           0       -2.158371   -1.273129   -0.150648
      4          6           0       -0.881227   -0.853305   -0.817425
      5          6           0       -0.608421    0.446700   -0.657430
      6          6           0        0.599457    1.125536   -1.202038
      7         16           0        1.939281    1.445095    0.026796
      8          6           0       -1.694352    1.161390    0.118454
      9          6           0       -1.234550    1.763173    1.450073
     10          6           0       -2.431383    2.212898   -0.715209
     11          6           0       -3.210091   -1.817169   -1.120999
     12          6           0       -1.911900   -2.262086    0.993710
     13          1           0       -0.240815   -1.561693   -1.336234
     14          1           0        1.055368    0.539761   -2.006863
     15          1           0        0.379867    2.128557   -1.586490
     16          1           0       -0.662437    1.037048    2.036837
     17          1           0       -0.606552    2.645591    1.289713
     18          1           0       -2.118575    2.066463    2.022068
     19          1           0       -3.323026    2.536847   -0.171756
     20          1           0       -1.795443    3.088343   -0.889289
     21          1           0       -2.741116    1.802134   -1.682566
     22          1           0       -3.370307   -1.126716   -1.953749
     23          1           0       -2.892448   -2.783185   -1.523104
     24          1           0       -4.159028   -1.949442   -0.589052
     25          1           0       -2.839260   -2.409730    1.558912
     26          1           0       -1.584691   -3.229136    0.598015
     27          1           0       -1.137276   -1.887700    1.673118
     28         16           0        2.760105   -0.528878    0.103140
     29          8           0        2.342756   -1.207091    1.347602
     30          8           0        2.507445   -1.179086   -1.209528
     31          6           0        4.511097   -0.159280    0.235888
     32          1           0        4.661829    0.459076    1.121444
     33          1           0        5.002464   -1.129007    0.351706
     34          1           0        4.827985    0.343870   -0.679069
 ---------------------------------------------------------------------
 Rotational constants (GHZ):           0.7796879           0.2770244           0.2422980
 Leave Link  202 at Mon Jun 17 21:25:23 2019, MaxMem=  8053063680 cpu:               0.0 elap:               0.1
 (Enter /data2/g16/g16/l301.exe)
 General basis read from cards:  (6D, 7F)
 Centers:      13     14     15     16     17     18     19     20     21     22
 Centers:      23     24     25     26     27     32     33     34
 6-31G
 S 1 1.00 0.000000000000
     Exponent=  4.0000000000D-01 Coefficients=  1.0000000000D+00
 P 1 1.00 0.000000000000
     Exponent=  7.5000000000D-01 Coefficients=  1.0000000000D+00
 ****
 Centers:       3      4      5      6      8      9     10     11     12     31
 6-31G
 S 1 1.00 0.000000000000
     Exponent=  8.7000000000D+00 Coefficients=  1.0000000000D+00
 P 1 1.00 0.000000000000
     Exponent=  5.0000000000D-02 Coefficients=  1.0000000000D+00
 D 1 1.00
     Exponent=  8.2000000000D-01 Coefficients=  1.0000000000D+00
 ****
 Centers:       2
 6-31G
 S 1 1.00 0.000000000000
     Exponent=  1.3700000000D+01 Coefficients=  1.0000000000D+00
 P 1 1.00 0.000000000000
     Exponent=  5.3000000000D-02 Coefficients=  1.0000000000D+00
 D 1 1.00 0.000000000000
     Exponent=  1.0150000000D+00 Coefficients=  1.0000000000D+00
 ****
 Centers:       1     29     30
 6-31G
 S 1 1.00
     Exponent=  1.6000000000D+01 Coefficients=  1.0000000000D+00
 P 1 1.00 0.000000000000
     Exponent=  6.5000000000D-02 Coefficients=  1.0000000000D+00
 D 1 1.00 0.000000000000
     Exponent=  1.1900000000D+00 Coefficients=  1.0000000000D+00
 D 1 1.00 0.000000000000
     Exponent=  1.8000000000D-01 Coefficients=  1.0000000000D+00
 ****
 Centers:       7     28
 6-31G
 S 1 1.00 0.000000000000
     Exponent=  7.5000000000D+00 Coefficients=  1.0000000000D+00
 P 1 1.00 0.000000000000
     Exponent=  4.1000000000D-02 Coefficients=  1.0000000000D+00
 D 1 1.00 0.000000000000
     Exponent=  4.7900000000D-01 Coefficients=  1.0000000000D+00
 ****
 Ernie: Thresh=  0.10000D-02 Tol=  0.10000D-05 Strict=F.
 There are   438 symmetry adapted cartesian basis functions of A   symmetry.
 There are   438 symmetry adapted basis functions of A   symmetry.
   438 basis functions,   722 primitive gaussians,   438 cartesian basis functions
    71 alpha electrons       70 beta electrons
       nuclear repulsion energy      1520.7754241691 Hartrees.
 IExCor= 1009 DFT=T Ex+Corr=PBE1PBE ExCW=0 ScaHFX=  0.250000
 ScaDFX=  0.750000  0.750000  1.000000  1.000000 ScalE2=  1.000000  1.000000
 IRadAn=      5 IRanWt=     -1 IRanGd=            0 ICorTp=0 IEmpDi=  4
 NAtoms=   34 NActive=   34 NUniq=   34 SFac= 1.00D+00 NAtFMM=   60 NAOKFM=F Big=F
 Integral buffers will be    131072 words long.
 Raffenetti 2 integral format.
 Two-electron integral symmetry is turned on.
 Leave Link  301 at Mon Jun 17 21:25:24 2019, MaxMem=  8053063680 cpu:               0.0 elap:               0.2
 (Enter /data2/g16/g16/l302.exe)
 NPDir=0 NMtPBC=     1 NCelOv=     1 NCel=       1 NClECP=     1 NCelD=      1
         NCelK=      1 NCelE2=     1 NClLst=     1 CellRange=     0.0.
 One-electron integrals computed using PRISM.
 One-electron integral symmetry used in STVInt
 NBasis=   438 RedAO= T EigKep=  6.45D-05  NBF=   438
 NBsUse=   438 1.00D-06 EigRej= -1.00D+00 NBFU=   438
 Precomputing XC quadrature grid using
 IXCGrd= 4 IRadAn=           5 IRanWt=          -1 IRanGd=           0 AccXCQ= 0.00D+00.
 Generated NRdTot=       0 NPtTot=           0 NUsed=           0 NTot=          32
 NSgBfM=   433   433   433   433   433 MxSgAt=    34 MxSgA2=    34.
 Leave Link  302 at Mon Jun 17 21:25:24 2019, MaxMem=  8053063680 cpu:               0.0 elap:               0.5
 (Enter /data2/g16/g16/l303.exe)
 DipDrv:  MaxL=1.
 Leave Link  303 at Mon Jun 17 21:25:24 2019, MaxMem=  8053063680 cpu:               0.0 elap:               0.1
 (Enter /data2/g16/g16/l401.exe)
 ExpMin= 4.10D-02 ExpMax= 2.19D+04 ExpMxC= 3.30D+03 IAcc=3 IRadAn=         5 AccDes= 0.00D+00
 Harris functional with IExCor= 1009 and IRadAn=       5 diagonalized for initial guess.
 HarFok:  IExCor= 1009 AccDes= 0.00D+00 IRadAn=         5 IDoV= 1 UseB2=F ITyADJ=14
 ICtDFT=  3500011 ScaDFX=  1.000000  1.000000  1.000000  1.000000
 FoFCou: FMM=F IPFlag=           0 FMFlag=      100000 FMFlg1=           0
         NFxFlg=           0 DoJE=T BraDBF=F KetDBF=T FulRan=T
         wScrn=  0.000000 ICntrl=       500 IOpCl=  0 I1Cent=   200000004 NGrid=           0
         NMat0=    1 NMatS0=      1 NMatT0=    0 NMatD0=    1 NMtDS0=    0 NMtDT0=    0
 Petite list used in FoFCou.
 Harris En= -1467.69852768650    
 JPrj=0 DoOrth=F DoCkMO=F.
 Initial guess <Sx>= 0.0000 <Sy>= 0.0000 <Sz>= 0.5000 <S**2>= 0.7500 S= 0.5000
 Leave Link  401 at Mon Jun 17 21:25:26 2019, MaxMem=  8053063680 cpu:               0.0 elap:               1.6
 (Enter /data2/g16/g16/l502.exe)
 Integral symmetry usage will be decided dynamically.
 UHF open shell SCF:
 Using DIIS extrapolation, IDIIS=  1040.
 NGot=  8053063680 LenX=  8052670277 LenY=  8052477992
 Requested convergence on RMS density matrix=1.00D-08 within 128 cycles.
 Requested convergence on MAX density matrix=1.00D-06.
 Requested convergence on             energy=1.00D-06.
 No special actions if energy rises.
 Fock matrices will be formed incrementally for  20 cycles.

 Cycle   1  Pass 1  IDiag  1:
 FoFJK:  IHMeth= 1 ICntrl=       0 DoSepK=F KAlg= 0 I1Cent=           0 FoldK=F
 IRaf= 840000000 NMat=       1 IRICut=       1 DoRegI=T DoRafI=F ISym2E= 0 IDoP0=0 IntGTp=1.
 FoFCou: FMM=F IPFlag=           0 FMFlag=      100000 FMFlg1=           0
         NFxFlg=           0 DoJE=F BraDBF=F KetDBF=F FulRan=T
         wScrn=  0.000000 ICntrl=         0 IOpCl=  1 I1Cent=           0 NGrid=           0
         NMat0=    1 NMatS0=      1 NMatT0=    0 NMatD0=    1 NMtDS0=    0 NMtDT0=    0
 Symmetry not used in FoFCou.
 E= -1466.93544562531    
 DIIS: error= 2.55D-02 at cycle   1 NSaved=   1.
 NSaved= 1 IEnMin= 1 EnMin= -1466.93544562531     IErMin= 1 ErrMin= 2.55D-02
 ErrMax= 2.55D-02  0.00D+00 EMaxC= 1.00D-01 BMatC= 2.97D+00 BMatP= 2.97D+00
 IDIUse=3 WtCom= 7.45D-01 WtEn= 2.55D-01
 Coeff-Com:  0.100D+01
 Coeff-En:   0.100D+01
 Coeff:      0.100D+01
 Gap=     0.224 Goal=   None    Shift=    0.000
 Gap=     0.365 Goal=   None    Shift=    0.000
 GapD=    0.224 DampG=1.000 DampE=0.500 DampFc=0.5000 IDamp=-1.
 Damping current iteration by 5.00D-01
 RMSDP=4.75D-03 MaxDP=4.12D-01              OVMax= 2.97D-01

 Cycle   2  Pass 1  IDiag  1:
 RMSU=  2.37D-03    CP:  9.92D-01
 E= -1467.06145882780     Delta-E=       -0.126013202490 Rises=F Damp=T
 DIIS: error= 1.02D-02 at cycle   2 NSaved=   2.
 NSaved= 2 IEnMin= 2 EnMin= -1467.06145882780     IErMin= 2 ErrMin= 1.02D-02
 ErrMax= 1.02D-02  0.00D+00 EMaxC= 1.00D-01 BMatC= 5.24D-01 BMatP= 2.97D+00
 IDIUse=3 WtCom= 8.98D-01 WtEn= 1.02D-01
 Coeff-Com:  0.227D+00 0.773D+00
 Coeff-En:   0.396D+00 0.604D+00
 Coeff:      0.244D+00 0.756D+00
 Gap=     0.127 Goal=   None    Shift=    0.000
 Gap=     0.185 Goal=   None    Shift=    0.000
 RMSDP=1.67D-03 MaxDP=1.19D-01 DE=-1.26D-01 OVMax= 2.85D-01

 Cycle   3  Pass 1  IDiag  1:
 RMSU=  1.39D-03    CP:  9.82D-01  6.10D-01
 E= -1467.46581410201     Delta-E=       -0.404355274214 Rises=F Damp=F
 DIIS: error= 7.59D-03 at cycle   3 NSaved=   3.
 NSaved= 3 IEnMin= 3 EnMin= -1467.46581410201     IErMin= 3 ErrMin= 7.59D-03
 ErrMax= 7.59D-03  0.00D+00 EMaxC= 1.00D-01 BMatC= 3.57D-01 BMatP= 5.24D-01
 IDIUse=3 WtCom= 9.24D-01 WtEn= 7.59D-02
 Coeff-Com:  0.532D-01 0.446D+00 0.501D+00
 Coeff-En:   0.000D+00 0.000D+00 0.100D+01
 Coeff:      0.492D-01 0.412D+00 0.539D+00
 Gap=     0.145 Goal=   None    Shift=    0.000
 Gap=     0.223 Goal=   None    Shift=    0.000
 RMSDP=9.23D-04 MaxDP=6.35D-02 DE=-4.04D-01 OVMax= 1.08D-01

 Cycle   4  Pass 1  IDiag  1:
 RMSU=  6.16D-04    CP:  9.87D-01  7.31D-01  5.53D-01
 E= -1467.53917445251     Delta-E=       -0.073360350493 Rises=F Damp=F
 DIIS: error= 2.26D-03 at cycle   4 NSaved=   4.
 NSaved= 4 IEnMin= 4 EnMin= -1467.53917445251     IErMin= 4 ErrMin= 2.26D-03
 ErrMax= 2.26D-03  0.00D+00 EMaxC= 1.00D-01 BMatC= 3.98D-02 BMatP= 3.57D-01
 IDIUse=3 WtCom= 9.77D-01 WtEn= 2.26D-02
 Coeff-Com: -0.138D-01 0.707D-01 0.271D+00 0.672D+00
 Coeff-En:   0.000D+00 0.000D+00 0.779D-01 0.922D+00
 Coeff:     -0.135D-01 0.691D-01 0.267D+00 0.678D+00
 Gap=     0.144 Goal=   None    Shift=    0.000
 Gap=     0.202 Goal=   None    Shift=    0.000
 RMSDP=3.05D-04 MaxDP=1.67D-02 DE=-7.34D-02 OVMax= 3.06D-02

 Cycle   5  Pass 1  IDiag  1:
 RMSU=  2.03D-04    CP:  9.86D-01  7.22D-01  6.55D-01  7.15D-01
 E= -1467.54745802393     Delta-E=       -0.008283571425 Rises=F Damp=F
 DIIS: error= 8.76D-04 at cycle   5 NSaved=   5.
 NSaved= 5 IEnMin= 5 EnMin= -1467.54745802393     IErMin= 5 ErrMin= 8.76D-04
 ErrMax= 8.76D-04  0.00D+00 EMaxC= 1.00D-01 BMatC= 3.98D-03 BMatP= 3.98D-02
 IDIUse=3 WtCom= 9.91D-01 WtEn= 8.76D-03
 Coeff-Com: -0.981D-02 0.176D-01 0.123D+00 0.378D+00 0.492D+00
 Coeff-En:   0.000D+00 0.000D+00 0.000D+00 0.000D+00 0.100D+01
 Coeff:     -0.972D-02 0.175D-01 0.122D+00 0.374D+00 0.496D+00
 Gap=     0.145 Goal=   None    Shift=    0.000
 Gap=     0.205 Goal=   None    Shift=    0.000
 RMSDP=1.10D-04 MaxDP=5.35D-03 DE=-8.28D-03 OVMax= 1.26D-02

 Cycle   6  Pass 1  IDiag  1:
 RMSU=  6.97D-05    CP:  9.85D-01  7.25D-01  6.52D-01  7.72D-01  6.25D-01
 E= -1467.54832240204     Delta-E=       -0.000864378109 Rises=F Damp=F
 DIIS: error= 2.39D-04 at cycle   6 NSaved=   6.
 NSaved= 6 IEnMin= 6 EnMin= -1467.54832240204     IErMin= 6 ErrMin= 2.39D-04
 ErrMax= 2.39D-04  0.00D+00 EMaxC= 1.00D-01 BMatC= 4.05D-04 BMatP= 3.98D-03
 IDIUse=3 WtCom= 9.98D-01 WtEn= 2.39D-03
 Coeff-Com: -0.330D-02 0.204D-02 0.342D-01 0.118D+00 0.273D+00 0.576D+00
 Coeff-En:   0.000D+00 0.000D+00 0.000D+00 0.000D+00 0.435D-01 0.957D+00
 Coeff:     -0.329D-02 0.204D-02 0.341D-01 0.118D+00 0.272D+00 0.577D+00
 Gap=     0.146 Goal=   None    Shift=    0.000
 Gap=     0.206 Goal=   None    Shift=    0.000
 RMSDP=3.59D-05 MaxDP=2.48D-03 DE=-8.64D-04 OVMax= 5.18D-03

 Cycle   7  Pass 1  IDiag  1:
 RMSU=  2.54D-05    CP:  9.85D-01  7.22D-01  6.57D-01  7.74D-01  6.69D-01
                    CP:  6.98D-01
 E= -1467.54841621680     Delta-E=       -0.000093814759 Rises=F Damp=F
 DIIS: error= 1.18D-04 at cycle   7 NSaved=   7.
 NSaved= 7 IEnMin= 7 EnMin= -1467.54841621680     IErMin= 7 ErrMin= 1.18D-04
 ErrMax= 1.18D-04  0.00D+00 EMaxC= 1.00D-01 BMatC= 6.65D-05 BMatP= 4.05D-04
 IDIUse=3 WtCom= 9.99D-01 WtEn= 1.18D-03
 Coeff-Com: -0.735D-04-0.235D-02-0.268D-02 0.291D-04 0.598D-01 0.329D+00
 Coeff-Com:  0.616D+00
 Coeff-En:   0.000D+00 0.000D+00 0.000D+00 0.000D+00 0.000D+00 0.699D-01
 Coeff-En:   0.930D+00
 Coeff:     -0.734D-04-0.235D-02-0.267D-02 0.291D-04 0.598D-01 0.328D+00
 Coeff:      0.617D+00
 Gap=     0.147 Goal=   None    Shift=    0.000
 Gap=     0.206 Goal=   None    Shift=    0.000
 RMSDP=1.50D-05 MaxDP=9.77D-04 DE=-9.38D-05 OVMax= 1.16D-03

 Cycle   8  Pass 1  IDiag  1:
 RMSU=  1.04D-05    CP:  9.85D-01  7.22D-01  6.57D-01  7.74D-01  7.02D-01
                    CP:  7.92D-01  7.97D-01
 E= -1467.54843235751     Delta-E=       -0.000016140707 Rises=F Damp=F
 DIIS: error= 3.18D-05 at cycle   8 NSaved=   8.
 NSaved= 8 IEnMin= 8 EnMin= -1467.54843235751     IErMin= 8 ErrMin= 3.18D-05
 ErrMax= 3.18D-05  0.00D+00 EMaxC= 1.00D-01 BMatC= 5.11D-06 BMatP= 6.65D-05
 IDIUse=1 WtCom= 1.00D+00 WtEn= 0.00D+00
 Coeff-Com:  0.460D-03-0.125D-02-0.524D-02-0.149D-01-0.152D-01 0.694D-01
 Coeff-Com:  0.226D+00 0.741D+00
 Coeff:      0.460D-03-0.125D-02-0.524D-02-0.149D-01-0.152D-01 0.694D-01
 Coeff:      0.226D+00 0.741D+00
 Gap=     0.147 Goal=   None    Shift=    0.000
 Gap=     0.206 Goal=   None    Shift=    0.000
 RMSDP=5.15D-06 MaxDP=6.19D-04 DE=-1.61D-05 OVMax= 1.18D-03

 Cycle   9  Pass 1  IDiag  1:
 RMSU=  4.26D-06    CP:  9.85D-01  7.22D-01  6.57D-01  7.76D-01  7.01D-01
                    CP:  8.23D-01  8.39D-01  9.08D-01
 E= -1467.54843381790     Delta-E=       -0.000001460397 Rises=F Damp=F
 DIIS: error= 2.17D-05 at cycle   9 NSaved=   9.
 NSaved= 9 IEnMin= 9 EnMin= -1467.54843381790     IErMin= 9 ErrMin= 2.17D-05
 ErrMax= 2.17D-05  0.00D+00 EMaxC= 1.00D-01 BMatC= 3.18D-06 BMatP= 5.11D-06
 IDIUse=1 WtCom= 1.00D+00 WtEn= 0.00D+00
 Coeff-Com:  0.365D-03-0.430D-03-0.288D-02-0.100D-01-0.257D-01-0.256D-01
 Coeff-Com: -0.281D-02 0.489D+00 0.578D+00
 Coeff:      0.365D-03-0.430D-03-0.288D-02-0.100D-01-0.257D-01-0.256D-01
 Coeff:     -0.281D-02 0.489D+00 0.578D+00
 Gap=     0.147 Goal=   None    Shift=    0.000
 Gap=     0.206 Goal=   None    Shift=    0.000
 RMSDP=3.31D-06 MaxDP=2.37D-04 DE=-1.46D-06 OVMax= 2.83D-04

 Cycle  10  Pass 1  IDiag  1:
 RMSU=  2.31D-06    CP:  9.85D-01  7.22D-01  6.57D-01  7.75D-01  7.05D-01
                    CP:  8.39D-01  8.78D-01  1.05D+00  8.52D-01
 E= -1467.54843453354     Delta-E=       -0.000000715634 Rises=F Damp=F
 DIIS: error= 9.35D-06 at cycle  10 NSaved=  10.
 NSaved=10 IEnMin=10 EnMin= -1467.54843453354     IErMin=10 ErrMin= 9.35D-06
 ErrMax= 9.35D-06  0.00D+00 EMaxC= 1.00D-01 BMatC= 5.54D-07 BMatP= 3.18D-06
 IDIUse=1 WtCom= 1.00D+00 WtEn= 0.00D+00
 Coeff-Com:  0.116D-03 0.632D-04-0.163D-03-0.179D-02-0.122D-01-0.320D-01
 Coeff-Com: -0.698D-01 0.110D+00 0.344D+00 0.662D+00
 Coeff:      0.116D-03 0.632D-04-0.163D-03-0.179D-02-0.122D-01-0.320D-01
 Coeff:     -0.698D-01 0.110D+00 0.344D+00 0.662D+00
 Gap=     0.147 Goal=   None    Shift=    0.000
 Gap=     0.206 Goal=   None    Shift=    0.000
 RMSDP=1.61D-06 MaxDP=1.29D-04 DE=-7.16D-07 OVMax= 2.74D-04

 Cycle  11  Pass 1  IDiag  1:
 RMSU=  9.55D-07    CP:  9.85D-01  7.22D-01  6.57D-01  7.75D-01  7.05D-01
                    CP:  8.46D-01  8.87D-01  1.14D+00  9.82D-01  8.70D-01
 E= -1467.54843469350     Delta-E=       -0.000000159962 Rises=F Damp=F
 DIIS: error= 5.55D-06 at cycle  11 NSaved=  11.
 NSaved=11 IEnMin=11 EnMin= -1467.54843469350     IErMin=11 ErrMin= 5.55D-06
 ErrMax= 5.55D-06  0.00D+00 EMaxC= 1.00D-01 BMatC= 1.04D-07 BMatP= 5.54D-07
 IDIUse=1 WtCom= 1.00D+00 WtEn= 0.00D+00
 Coeff-Com:  0.356D-05 0.825D-04 0.433D-03 0.841D-03-0.220D-02-0.107D-01
 Coeff-Com: -0.368D-01-0.201D-01 0.675D-01 0.358D+00 0.643D+00
 Coeff:      0.356D-05 0.825D-04 0.433D-03 0.841D-03-0.220D-02-0.107D-01
 Coeff:     -0.368D-01-0.201D-01 0.675D-01 0.358D+00 0.643D+00
 Gap=     0.147 Goal=   None    Shift=    0.000
 Gap=     0.206 Goal=   None    Shift=    0.000
 RMSDP=6.19D-07 MaxDP=6.19D-05 DE=-1.60D-07 OVMax= 1.24D-04

 Cycle  12  Pass 1  IDiag  1:
 RMSU=  4.34D-07    CP:  9.85D-01  7.22D-01  6.57D-01  7.75D-01  7.05D-01
                    CP:  8.48D-01  8.84D-01  1.15D+00  1.03D+00  9.84D-01
                    CP:  8.27D-01
 E= -1467.54843471974     Delta-E=       -0.000000026243 Rises=F Damp=F
 DIIS: error= 3.32D-06 at cycle  12 NSaved=  12.
 NSaved=12 IEnMin=12 EnMin= -1467.54843471974     IErMin=12 ErrMin= 3.32D-06
 ErrMax= 3.32D-06  0.00D+00 EMaxC= 1.00D-01 BMatC= 2.78D-08 BMatP= 1.04D-07
 IDIUse=1 WtCom= 1.00D+00 WtEn= 0.00D+00
 Coeff-Com: -0.143D-04 0.305D-04 0.301D-03 0.824D-03 0.609D-03-0.135D-02
 Coeff-Com: -0.125D-01-0.342D-01-0.272D-01 0.105D+00 0.403D+00 0.566D+00
 Coeff:     -0.143D-04 0.305D-04 0.301D-03 0.824D-03 0.609D-03-0.135D-02
 Coeff:     -0.125D-01-0.342D-01-0.272D-01 0.105D+00 0.403D+00 0.566D+00
 Gap=     0.147 Goal=   None    Shift=    0.000
 Gap=     0.206 Goal=   None    Shift=    0.000
 RMSDP=3.31D-07 MaxDP=2.31D-05 DE=-2.62D-08 OVMax= 2.87D-05

 Cycle  13  Pass 1  IDiag  1:
 RMSU=  2.07D-07    CP:  9.85D-01  7.22D-01  6.57D-01  7.75D-01  7.05D-01
                    CP:  8.49D-01  8.85D-01  1.15D+00  1.06D+00  1.05D+00
                    CP:  9.50D-01  8.38D-01
 E= -1467.54843472588     Delta-E=       -0.000000006140 Rises=F Damp=F
 DIIS: error= 1.04D-06 at cycle  13 NSaved=  13.
 NSaved=13 IEnMin=13 EnMin= -1467.54843472588     IErMin=13 ErrMin= 1.04D-06
 ErrMax= 1.04D-06  0.00D+00 EMaxC= 1.00D-01 BMatC= 4.05D-09 BMatP= 2.78D-08
 IDIUse=1 WtCom= 1.00D+00 WtEn= 0.00D+00
 Coeff-Com: -0.512D-05-0.740D-05 0.572D-04 0.215D-03 0.885D-03 0.269D-02
 Coeff-Com:  0.349D-02-0.965D-02-0.330D-01-0.342D-01 0.598D-01 0.306D+00
 Coeff-Com:  0.703D+00
 Coeff:     -0.512D-05-0.740D-05 0.572D-04 0.215D-03 0.885D-03 0.269D-02
 Coeff:      0.349D-02-0.965D-02-0.330D-01-0.342D-01 0.598D-01 0.306D+00
 Coeff:      0.703D+00
 Gap=     0.147 Goal=   None    Shift=    0.000
 Gap=     0.206 Goal=   None    Shift=    0.000
 RMSDP=1.28D-07 MaxDP=1.32D-05 DE=-6.14D-09 OVMax= 2.16D-05

 Cycle  14  Pass 1  IDiag  1:
 RMSU=  1.06D-07    CP:  9.85D-01  7.22D-01  6.57D-01  7.75D-01  7.05D-01
                    CP:  8.49D-01  8.85D-01  1.15D+00  1.06D+00  1.07D+00
                    CP:  9.82D-01  8.59D-01  8.25D-01
 E= -1467.54843472690     Delta-E=       -0.000000001014 Rises=F Damp=F
 DIIS: error= 5.56D-07 at cycle  14 NSaved=  14.
 NSaved=14 IEnMin=14 EnMin= -1467.54843472690     IErMin=14 ErrMin= 5.56D-07
 ErrMax= 5.56D-07  0.00D+00 EMaxC= 1.00D-01 BMatC= 8.70D-10 BMatP= 4.05D-09
 IDIUse=1 WtCom= 1.00D+00 WtEn= 0.00D+00
 Coeff-Com:  0.209D-06-0.113D-04-0.278D-04-0.440D-04 0.332D-03 0.162D-02
 Coeff-Com:  0.399D-02 0.170D-02-0.122D-01-0.389D-01-0.525D-01 0.228D-01
 Coeff-Com:  0.375D+00 0.698D+00
 Coeff:      0.209D-06-0.113D-04-0.278D-04-0.440D-04 0.332D-03 0.162D-02
 Coeff:      0.399D-02 0.170D-02-0.122D-01-0.389D-01-0.525D-01 0.228D-01
 Coeff:      0.375D+00 0.698D+00
 Gap=     0.147 Goal=   None    Shift=    0.000
 Gap=     0.206 Goal=   None    Shift=    0.000
 RMSDP=7.24D-08 MaxDP=4.76D-06 DE=-1.01D-09 OVMax= 6.02D-06

 Cycle  15  Pass 1  IDiag  1:
 RMSU=  3.47D-08    CP:  9.85D-01  7.22D-01  6.57D-01  7.75D-01  7.05D-01
                    CP:  8.49D-01  8.85D-01  1.15D+00  1.06D+00  1.07D+00
                    CP:  1.00D+00  9.47D-01  9.47D-01  8.12D-01
 E= -1467.54843472734     Delta-E=       -0.000000000441 Rises=F Damp=F
 DIIS: error= 1.35D-07 at cycle  15 NSaved=  15.
 NSaved=15 IEnMin=15 EnMin= -1467.54843472734     IErMin=15 ErrMin= 1.35D-07
 ErrMax= 1.35D-07  0.00D+00 EMaxC= 1.00D-01 BMatC= 5.92D-11 BMatP= 8.70D-10
 IDIUse=1 WtCom= 1.00D+00 WtEn= 0.00D+00
 Coeff-Com:  0.818D-06-0.237D-05-0.196D-04-0.494D-04-0.128D-04 0.208D-03
 Coeff-Com:  0.865D-03 0.215D-02 0.419D-03-0.802D-02-0.263D-01-0.404D-01
 Coeff-Com:  0.406D-01 0.224D+00 0.807D+00
 Coeff:      0.818D-06-0.237D-05-0.196D-04-0.494D-04-0.128D-04 0.208D-03
 Coeff:      0.865D-03 0.215D-02 0.419D-03-0.802D-02-0.263D-01-0.404D-01
 Coeff:      0.406D-01 0.224D+00 0.807D+00
 Gap=     0.147 Goal=   None    Shift=    0.000
 Gap=     0.206 Goal=   None    Shift=    0.000
 RMSDP=2.07D-08 MaxDP=1.23D-06 DE=-4.41D-10 OVMax= 2.18D-06

 Cycle  16  Pass 1  IDiag  1:
 RMSU=  1.43D-08    CP:  9.85D-01  7.22D-01  6.57D-01  7.75D-01  7.05D-01
                    CP:  8.49D-01  8.85D-01  1.15D+00  1.06D+00  1.07D+00
                    CP:  1.01D+00  9.48D-01  9.95D-01  8.93D-01  9.39D-01
 E= -1467.54843472730     Delta-E=        0.000000000037 Rises=F Damp=F
 DIIS: error= 4.84D-08 at cycle  16 NSaved=  16.
 NSaved=16 IEnMin=15 EnMin= -1467.54843472734     IErMin=16 ErrMin= 4.84D-08
 ErrMax= 4.84D-08  0.00D+00 EMaxC= 1.00D-01 BMatC= 1.18D-11 BMatP= 5.92D-11
 IDIUse=1 WtCom= 1.00D+00 WtEn= 0.00D+00
 Coeff-Com:  0.152D-06 0.983D-06-0.359D-05-0.113D-04-0.549D-04-0.157D-03
 Coeff-Com: -0.266D-03 0.598D-03 0.188D-02 0.297D-02-0.244D-02-0.197D-01
 Coeff-Com: -0.377D-01-0.236D-01 0.318D+00 0.760D+00
 Coeff:      0.152D-06 0.983D-06-0.359D-05-0.113D-04-0.549D-04-0.157D-03
 Coeff:     -0.266D-03 0.598D-03 0.188D-02 0.297D-02-0.244D-02-0.197D-01
 Coeff:     -0.377D-01-0.236D-01 0.318D+00 0.760D+00
 Gap=     0.147 Goal=   None    Shift=    0.000
 Gap=     0.206 Goal=   None    Shift=    0.000
 RMSDP=8.88D-09 MaxDP=4.95D-07 DE= 3.73D-11 OVMax= 1.32D-06

 SCF Done:  E(UPBE1PBE) =  -1467.54843473     A.U. after   16 cycles
            NFock= 16  Conv=0.89D-08     -V/T= 2.0053
 <Sx>= 0.0000 <Sy>= 0.0000 <Sz>= 0.5000 <S**2>= 0.7550 S= 0.5025
 <L.S>=  0.00000000000    
 KE= 1.459878091940D+03 PE=-6.496936509253D+03 EE= 2.048734558416D+03
 Annihilation of the first spin contaminant:
 S**2 before annihilation     0.7550,   after     0.7500
 Leave Link  502 at Mon Jun 17 21:28:03 2019, MaxMem=  8053063680 cpu:               0.0 elap:             156.7
 (Enter /data2/g16/g16/l601.exe)
 Copying SCF densities to generalized density rwf, IOpCl= 1 IROHF=0.

 **********************************************************************

            Population analysis using the SCF Density.

 **********************************************************************

 Orbital symmetries:
 Alpha Orbitals:
       Occupied  (A) (A) (A) (A) (A) (A) (A) (A) (A) (A) (A) (A)
                 (A) (A) (A) (A) (A) (A) (A) (A) (A) (A) (A) (A)
                 (A) (A) (A) (A) (A) (A) (A) (A) (A) (A) (A) (A)
                 (A) (A) (A) (A) (A) (A) (A) (A) (A) (A) (A) (A)
                 (A) (A) (A) (A) (A) (A) (A) (A) (A) (A) (A) (A)
                 (A) (A) (A) (A) (A) (A) (A) (A) (A) (A) (A)
       Virtual   (A) (A) (A) (A) (A) (A) (A) (A) (A) (A) (A) (A)
                 (A) (A) (A) (A) (A) (A) (A) (A) (A) (A) (A) (A)
                 (A) (A) (A) (A) (A) (A) (A) (A) (A) (A) (A) (A)
                 (A) (A) (A) (A) (A) (A) (A) (A) (A) (A) (A) (A)
                 (A) (A) (A) (A) (A) (A) (A) (A) (A) (A) (A) (A)
                 (A) (A) (A) (A) (A) (A) (A) (A) (A) (A) (A) (A)
                 (A) (A) (A) (A) (A) (A) (A) (A) (A) (A) (A) (A)
                 (A) (A) (A) (A) (A) (A) (A) (A) (A) (A) (A) (A)
                 (A) (A) (A) (A) (A) (A) (A) (A) (A) (A) (A) (A)
                 (A) (A) (A) (A) (A) (A) (A) (A) (A) (A) (A) (A)
                 (A) (A) (A) (A) (A) (A) (A) (A) (A) (A) (A) (A)
                 (A) (A) (A) (A) (A) (A) (A) (A) (A) (A) (A) (A)
                 (A) (A) (A) (A) (A) (A) (A) (A) (A) (A) (A) (A)
                 (A) (A) (A) (A) (A) (A) (A) (A) (A) (A) (A) (A)
                 (A) (A) (A) (A) (A) (A) (A) (A) (A) (A) (A) (A)
                 (A) (A) (A) (A) (A) (A) (A) (A) (A) (A) (A) (A)
                 (A) (A) (A) (A) (A) (A) (A) (A) (A) (A) (A) (A)
                 (A) (A) (A) (A) (A) (A) (A) (A) (A) (A) (A) (A)
                 (A) (A) (A) (A) (A) (A) (A) (A) (A) (A) (A) (A)
                 (A) (A) (A) (A) (A) (A) (A) (A) (A) (A) (A) (A)
                 (A) (A) (A) (A) (A) (A) (A) (A) (A) (A) (A) (A)
                 (A) (A) (A) (A) (A) (A) (A) (A) (A) (A) (A) (A)
                 (A) (A) (A) (A) (A) (A) (A) (A) (A) (A) (A) (A)
                 (A) (A) (A) (A) (A) (A) (A) (A) (A) (A) (A) (A)
                 (A) (A) (A) (A) (A) (A) (A) (A) (A) (A) (A) (A)
                 (A) (A) (A) (A) (A) (A) (A) (A) (A) (A) (A) (A)
                 (A) (A) (A) (A) (A) (A) (A) (A) (A) (A) (A) (A)
                 (A) (A) (A) (A) (A) (A) (A) (A) (A) (A) (A) (A)
                 (A) (A) (A) (A) (A) (A) (A) (A) (A) (A) (A) (A)
                 (A) (A) (A) (A) (A) (A) (A) (A) (A) (A) (A) (A)
                 (A) (A) (A) (A) (A) (A) (A)
 Beta  Orbitals:
       Occupied  (A) (A) (A) (A) (A) (A) (A) (A) (A) (A) (A) (A)
                 (A) (A) (A) (A) (A) (A) (A) (A) (A) (A) (A) (A)
                 (A) (A) (A) (A) (A) (A) (A) (A) (A) (A) (A) (A)
                 (A) (A) (A) (A) (A) (A) (A) (A) (A) (A) (A) (A)
                 (A) (A) (A) (A) (A) (A) (A) (A) (A) (A) (A) (A)
                 (A) (A) (A) (A) (A) (A) (A) (A) (A) (A)
       Virtual   (A) (A) (A) (A) (A) (A) (A) (A) (A) (A) (A) (A)
                 (A) (A) (A) (A) (A) (A) (A) (A) (A) (A) (A) (A)
                 (A) (A) (A) (A) (A) (A) (A) (A) (A) (A) (A) (A)
                 (A) (A) (A) (A) (A) (A) (A) (A) (A) (A) (A) (A)
                 (A) (A) (A) (A) (A) (A) (A) (A) (A) (A) (A) (A)
                 (A) (A) (A) (A) (A) (A) (A) (A) (A) (A) (A) (A)
                 (A) (A) (A) (A) (A) (A) (A) (A) (A) (A) (A) (A)
                 (A) (A) (A) (A) (A) (A) (A) (A) (A) (A) (A) (A)
                 (A) (A) (A) (A) (A) (A) (A) (A) (A) (A) (A) (A)
                 (A) (A) (A) (A) (A) (A) (A) (A) (A) (A) (A) (A)
                 (A) (A) (A) (A) (A) (A) (A) (A) (A) (A) (A) (A)
                 (A) (A) (A) (A) (A) (A) (A) (A) (A) (A) (A) (A)
                 (A) (A) (A) (A) (A) (A) (A) (A) (A) (A) (A) (A)
                 (A) (A) (A) (A) (A) (A) (A) (A) (A) (A) (A) (A)
                 (A) (A) (A) (A) (A) (A) (A) (A) (A) (A) (A) (A)
                 (A) (A) (A) (A) (A) (A) (A) (A) (A) (A) (A) (A)
                 (A) (A) (A) (A) (A) (A) (A) (A) (A) (A) (A) (A)
                 (A) (A) (A) (A) (A) (A) (A) (A) (A) (A) (A) (A)
                 (A) (A) (A) (A) (A) (A) (A) (A) (A) (A) (A) (A)
                 (A) (A) (A) (A) (A) (A) (A) (A) (A) (A) (A) (A)
                 (A) (A) (A) (A) (A) (A) (A) (A) (A) (A) (A) (A)
                 (A) (A) (A) (A) (A) (A) (A) (A) (A) (A) (A) (A)
                 (A) (A) (A) (A) (A) (A) (A) (A) (A) (A) (A) (A)
                 (A) (A) (A) (A) (A) (A) (A) (A) (A) (A) (A) (A)
                 (A) (A) (A) (A) (A) (A) (A) (A) (A) (A) (A) (A)
                 (A) (A) (A) (A) (A) (A) (A) (A) (A) (A) (A) (A)
                 (A) (A) (A) (A) (A) (A) (A) (A) (A) (A) (A) (A)
                 (A) (A) (A) (A) (A) (A) (A) (A) (A) (A) (A) (A)
                 (A) (A) (A) (A) (A) (A) (A) (A) (A) (A) (A) (A)
                 (A) (A) (A) (A) (A) (A) (A) (A) (A) (A) (A) (A)
                 (A) (A) (A) (A) (A) (A) (A) (A)
 The electronic state is 2-A.
 Alpha  occ. eigenvalues --  -89.28823 -89.08213 -19.24729 -19.24260 -19.22623
 Alpha  occ. eigenvalues --  -14.48512 -10.29834 -10.29717 -10.29146 -10.28738
 Alpha  occ. eigenvalues --  -10.26174 -10.24909 -10.23177 -10.22740 -10.22650
 Alpha  occ. eigenvalues --  -10.22461  -8.22137  -8.04456  -6.15859  -6.15818
 Alpha  occ. eigenvalues --   -6.15702  -5.98299  -5.97918  -5.97198  -1.14666
 Alpha  occ. eigenvalues --   -1.13532  -1.04431  -0.93297  -0.85921  -0.84047
 Alpha  occ. eigenvalues --   -0.82280  -0.77269  -0.74916  -0.72047  -0.71214
 Alpha  occ. eigenvalues --   -0.70623  -0.64492  -0.62471  -0.59025  -0.56411
 Alpha  occ. eigenvalues --   -0.53121  -0.51822  -0.51304  -0.50770  -0.50212
 Alpha  occ. eigenvalues --   -0.48485  -0.47417  -0.46378  -0.46166  -0.45207
 Alpha  occ. eigenvalues --   -0.44656  -0.44022  -0.42713  -0.42387  -0.41625
 Alpha  occ. eigenvalues --   -0.40524  -0.40048  -0.39149  -0.38898  -0.36479
 Alpha  occ. eigenvalues --   -0.36399  -0.36128  -0.35734  -0.35645  -0.34600
 Alpha  occ. eigenvalues --   -0.33581  -0.31772  -0.28361  -0.27196  -0.26929
 Alpha  occ. eigenvalues --   -0.20104
 Alpha virt. eigenvalues --   -0.05430  -0.02503   0.00432   0.01048   0.02614
 Alpha virt. eigenvalues --    0.03427   0.03744   0.04537   0.04782   0.05005
 Alpha virt. eigenvalues --    0.05450   0.05831   0.06167   0.06281   0.06847
 Alpha virt. eigenvalues --    0.07846   0.08234   0.08324   0.09009   0.09237
 Alpha virt. eigenvalues --    0.09400   0.09738   0.10274   0.10840   0.10963
 Alpha virt. eigenvalues --    0.11367   0.11878   0.12570   0.13002   0.13686
 Alpha virt. eigenvalues --    0.14032   0.14324   0.14808   0.15133   0.15460
 Alpha virt. eigenvalues --    0.16011   0.16517   0.16578   0.17123   0.17640
 Alpha virt. eigenvalues --    0.18515   0.18753   0.19259   0.19480   0.19686
 Alpha virt. eigenvalues --    0.20045   0.20913   0.21328   0.21854   0.22422
 Alpha virt. eigenvalues --    0.23150   0.23492   0.24204   0.24327   0.25195
 Alpha virt. eigenvalues --    0.25928   0.26298   0.26593   0.27151   0.27619
 Alpha virt. eigenvalues --    0.28017   0.28584   0.28854   0.29356   0.29669
 Alpha virt. eigenvalues --    0.30261   0.30625   0.31409   0.31488   0.32019
 Alpha virt. eigenvalues --    0.32636   0.32958   0.33732   0.34284   0.34982
 Alpha virt. eigenvalues --    0.35609   0.36791   0.37796   0.37892   0.40597
 Alpha virt. eigenvalues --    0.41574   0.42105   0.42231   0.42956   0.44517
 Alpha virt. eigenvalues --    0.46183   0.47311   0.47573   0.48114   0.49915
 Alpha virt. eigenvalues --    0.50598   0.51184   0.51792   0.52083   0.52306
 Alpha virt. eigenvalues --    0.52990   0.53748   0.54369   0.55451   0.56171
 Alpha virt. eigenvalues --    0.56905   0.57453   0.58355   0.59830   0.60290
 Alpha virt. eigenvalues --    0.60560   0.61782   0.62514   0.63290   0.63934
 Alpha virt. eigenvalues --    0.64503   0.65011   0.65508   0.65692   0.66764
 Alpha virt. eigenvalues --    0.68122   0.68384   0.68579   0.70080   0.71018
 Alpha virt. eigenvalues --    0.72102   0.72645   0.72965   0.73339   0.74189
 Alpha virt. eigenvalues --    0.74907   0.75729   0.76465   0.77491   0.78522
 Alpha virt. eigenvalues --    0.78976   0.79616   0.80637   0.81797   0.82354
 Alpha virt. eigenvalues --    0.82833   0.83300   0.83895   0.84741   0.85500
 Alpha virt. eigenvalues --    0.86020   0.86978   0.88044   0.88680   0.88768
 Alpha virt. eigenvalues --    0.89057   0.89707   0.90342   0.91085   0.91805
 Alpha virt. eigenvalues --    0.92113   0.92851   0.94356   0.95008   0.95151
 Alpha virt. eigenvalues --    0.95895   0.97726   0.97794   0.98283   0.99114
 Alpha virt. eigenvalues --    1.00106   1.01521   1.02162   1.03351   1.04101
 Alpha virt. eigenvalues --    1.04839   1.07375   1.08592   1.09051   1.11323
 Alpha virt. eigenvalues --    1.12481   1.14306   1.14977   1.15733   1.17164
 Alpha virt. eigenvalues --    1.18617   1.20202   1.22140   1.22346   1.23592
 Alpha virt. eigenvalues --    1.25669   1.28849   1.30157   1.30697   1.32227
 Alpha virt. eigenvalues --    1.36113   1.37936   1.39550   1.40132   1.41383
 Alpha virt. eigenvalues --    1.44300   1.45202   1.45820   1.48009   1.48850
 Alpha virt. eigenvalues --    1.49990   1.50185   1.50732   1.52890   1.56071
 Alpha virt. eigenvalues --    1.57257   1.59384   1.62688   1.63085   1.63391
 Alpha virt. eigenvalues --    1.65363   1.65679   1.66700   1.68122   1.68540
 Alpha virt. eigenvalues --    1.69153   1.71505   1.72225   1.73110   1.74523
 Alpha virt. eigenvalues --    1.75252   1.76463   1.77893   1.78883   1.79420
 Alpha virt. eigenvalues --    1.79660   1.80105   1.80740   1.82136   1.82550
 Alpha virt. eigenvalues --    1.83994   1.85053   1.85381   1.86237   1.86435
 Alpha virt. eigenvalues --    1.87697   1.89472   1.92173   1.92356   1.93854
 Alpha virt. eigenvalues --    1.95142   1.95931   1.97922   1.98300   1.99403
 Alpha virt. eigenvalues --    1.99847   2.01592   2.03216   2.03892   2.05562
 Alpha virt. eigenvalues --    2.06555   2.07354   2.10187   2.11750   2.13542
 Alpha virt. eigenvalues --    2.14650   2.16159   2.16901   2.24686   2.25640
 Alpha virt. eigenvalues --    2.28067   2.28413   2.30842   2.33139   2.34472
 Alpha virt. eigenvalues --    2.36423   2.38733   2.39428   2.40262   2.40988
 Alpha virt. eigenvalues --    2.43000   2.44736   2.47192   2.48700   2.49616
 Alpha virt. eigenvalues --    2.53802   2.54298   2.55042   2.58068   2.58582
 Alpha virt. eigenvalues --    2.60646   2.63689   2.65213   2.66109   2.67511
 Alpha virt. eigenvalues --    2.70629   2.75572   2.75765   2.76807   2.80406
 Alpha virt. eigenvalues --    2.82525   2.82687   2.83169   2.83189   2.84123
 Alpha virt. eigenvalues --    2.84267   2.85313   2.86332   2.87014   2.87745
 Alpha virt. eigenvalues --    2.88316   2.89640   2.91271   2.93001   2.93557
 Alpha virt. eigenvalues --    2.94401   2.95702   2.96782   2.98001   2.98436
 Alpha virt. eigenvalues --    2.99245   3.02940   3.03623   3.03978   3.06510
 Alpha virt. eigenvalues --    3.08160   3.15632   3.18120   3.19416   3.20434
 Alpha virt. eigenvalues --    3.26185   3.28177   3.29491   3.31128   3.31802
 Alpha virt. eigenvalues --    3.34577   3.35592   3.37178   3.38450   3.40910
 Alpha virt. eigenvalues --    3.42171   3.43544   3.44893   3.47793   3.50119
 Alpha virt. eigenvalues --    3.53505   3.57010   3.60105   3.63430   3.64831
 Alpha virt. eigenvalues --    3.76909   3.94205   4.47064   4.56977   4.62136
 Alpha virt. eigenvalues --    4.64138   4.72279   4.73912   4.74619   4.86608
 Alpha virt. eigenvalues --    4.91291   5.03086   5.44568   5.81684   5.84360
 Alpha virt. eigenvalues --    6.08049  22.21309  22.63225  58.49127  58.49226
 Alpha virt. eigenvalues --   58.50356  58.50619  58.50853  58.55732  58.56173
 Alpha virt. eigenvalues --   58.56243  58.56494  58.56765  95.61919 106.32201
 Alpha virt. eigenvalues --  106.33230 106.39135
  Beta  occ. eigenvalues --  -89.28823 -89.08213 -19.24729 -19.24260 -19.21193
  Beta  occ. eigenvalues --  -14.47317 -10.29835 -10.29717 -10.29211 -10.28803
  Beta  occ. eigenvalues --  -10.26173 -10.24905 -10.23128 -10.22689 -10.22605
  Beta  occ. eigenvalues --  -10.22406  -8.22137  -8.04456  -6.15859  -6.15818
  Beta  occ. eigenvalues --   -6.15702  -5.98298  -5.97918  -5.97198  -1.14666
  Beta  occ. eigenvalues --   -1.10897  -1.04431  -0.92350  -0.85730  -0.83945
  Beta  occ. eigenvalues --   -0.82143  -0.77070  -0.73850  -0.71807  -0.71088
  Beta  occ. eigenvalues --   -0.70154  -0.64439  -0.62341  -0.58646  -0.55898
  Beta  occ. eigenvalues --   -0.53035  -0.51814  -0.51023  -0.50420  -0.48391
  Beta  occ. eigenvalues --   -0.47502  -0.47162  -0.46369  -0.46098  -0.44953
  Beta  occ. eigenvalues --   -0.44305  -0.43889  -0.42501  -0.41590  -0.41130
  Beta  occ. eigenvalues --   -0.40214  -0.40014  -0.38798  -0.37653  -0.36345
  Beta  occ. eigenvalues --   -0.36091  -0.35703  -0.35649  -0.34573  -0.33579
  Beta  occ. eigenvalues --   -0.32746  -0.31769  -0.28269  -0.26744  -0.26003
  Beta virt. eigenvalues --   -0.05432  -0.03755  -0.02457   0.00443   0.01054
  Beta virt. eigenvalues --    0.02635   0.03448   0.03783   0.04571   0.04871
  Beta virt. eigenvalues --    0.05040   0.05477   0.05877   0.06195   0.06311
  Beta virt. eigenvalues --    0.06920   0.07864   0.08275   0.08436   0.09039
  Beta virt. eigenvalues --    0.09328   0.09436   0.09813   0.10324   0.10902
  Beta virt. eigenvalues --    0.10977   0.11405   0.11971   0.12677   0.13095
  Beta virt. eigenvalues --    0.13742   0.14081   0.14375   0.14931   0.15234
  Beta virt. eigenvalues --    0.15696   0.16096   0.16588   0.16895   0.17299
  Beta virt. eigenvalues --    0.17747   0.18558   0.18900   0.19333   0.19758
  Beta virt. eigenvalues --    0.19812   0.20224   0.21008   0.21458   0.21947
  Beta virt. eigenvalues --    0.22521   0.23328   0.23537   0.24339   0.24702
  Beta virt. eigenvalues --    0.25375   0.26087   0.26376   0.26674   0.27195
  Beta virt. eigenvalues --    0.27685   0.28092   0.28739   0.29053   0.29424
  Beta virt. eigenvalues --    0.30034   0.30547   0.30745   0.31534   0.31843
  Beta virt. eigenvalues --    0.32097   0.32773   0.33198   0.33950   0.34345
  Beta virt. eigenvalues --    0.35070   0.35802   0.36821   0.37878   0.37973
  Beta virt. eigenvalues --    0.40626   0.41616   0.42209   0.42624   0.43077
  Beta virt. eigenvalues --    0.44679   0.46240   0.47392   0.47614   0.48172
  Beta virt. eigenvalues --    0.50089   0.50652   0.51396   0.51894   0.52193
  Beta virt. eigenvalues --    0.52375   0.53039   0.53970   0.54399   0.55508
  Beta virt. eigenvalues --    0.56256   0.56968   0.57527   0.58481   0.59996
  Beta virt. eigenvalues --    0.60404   0.60697   0.61834   0.62557   0.63464
  Beta virt. eigenvalues --    0.64006   0.64573   0.65088   0.65636   0.65965
  Beta virt. eigenvalues --    0.66838   0.68195   0.68579   0.68757   0.70286
  Beta virt. eigenvalues --    0.71277   0.72224   0.72754   0.73026   0.73421
  Beta virt. eigenvalues --    0.74393   0.74936   0.75857   0.76536   0.77533
  Beta virt. eigenvalues --    0.78758   0.79011   0.79827   0.80735   0.81995
  Beta virt. eigenvalues --    0.82479   0.82877   0.83362   0.84005   0.84823
  Beta virt. eigenvalues --    0.85547   0.86139   0.87080   0.88068   0.88749
  Beta virt. eigenvalues --    0.88810   0.89097   0.89759   0.90407   0.91150
  Beta virt. eigenvalues --    0.91878   0.92234   0.93135   0.94488   0.95096
  Beta virt. eigenvalues --    0.95235   0.96086   0.97786   0.98116   0.98926
  Beta virt. eigenvalues --    0.99594   1.00411   1.01820   1.02196   1.03453
  Beta virt. eigenvalues --    1.04207   1.04964   1.07434   1.08652   1.09402
  Beta virt. eigenvalues --    1.11647   1.12508   1.14378   1.15051   1.15855
  Beta virt. eigenvalues --    1.17406   1.18858   1.20676   1.22505   1.23048
  Beta virt. eigenvalues --    1.24233   1.26098   1.29265   1.30440   1.31750
  Beta virt. eigenvalues --    1.32489   1.36521   1.38222   1.39594   1.40194
  Beta virt. eigenvalues --    1.41469   1.44326   1.45400   1.46107   1.48327
  Beta virt. eigenvalues --    1.48905   1.50068   1.50235   1.50790   1.52930
  Beta virt. eigenvalues --    1.56254   1.57330   1.59510   1.62704   1.63105
  Beta virt. eigenvalues --    1.63406   1.65749   1.65876   1.67184   1.68227
  Beta virt. eigenvalues --    1.68559   1.69502   1.71617   1.72312   1.73215
  Beta virt. eigenvalues --    1.74597   1.75315   1.76542   1.77979   1.78937
  Beta virt. eigenvalues --    1.79468   1.79740   1.80189   1.80765   1.82212
  Beta virt. eigenvalues --    1.82673   1.84111   1.85097   1.85486   1.86388
  Beta virt. eigenvalues --    1.86566   1.87853   1.89573   1.92471   1.92581
  Beta virt. eigenvalues --    1.93901   1.95151   1.95948   1.98027   1.98475
  Beta virt. eigenvalues --    1.99730   2.00081   2.01967   2.03524   2.04061
  Beta virt. eigenvalues --    2.06152   2.06891   2.07554   2.10461   2.12424
  Beta virt. eigenvalues --    2.13644   2.14896   2.16207   2.17313   2.25404
  Beta virt. eigenvalues --    2.25904   2.28148   2.29598   2.30916   2.33212
  Beta virt. eigenvalues --    2.34633   2.36519   2.38736   2.39430   2.40381
  Beta virt. eigenvalues --    2.41372   2.43263   2.44835   2.47355   2.49222
  Beta virt. eigenvalues --    2.49750   2.53898   2.55220   2.55587   2.58490
  Beta virt. eigenvalues --    2.58737   2.60694   2.63740   2.65344   2.66161
  Beta virt. eigenvalues --    2.68417   2.70819   2.75711   2.76032   2.77094
  Beta virt. eigenvalues --    2.80606   2.82541   2.82736   2.83191   2.84024
  Beta virt. eigenvalues --    2.84206   2.85333   2.85998   2.86926   2.87040
  Beta virt. eigenvalues --    2.87912   2.89490   2.89888   2.91545   2.93063
  Beta virt. eigenvalues --    2.94533   2.94959   2.96316   2.96953   2.98158
  Beta virt. eigenvalues --    2.98500   2.99746   3.03133   3.04104   3.04476
  Beta virt. eigenvalues --    3.06614   3.08269   3.15966   3.19074   3.19572
  Beta virt. eigenvalues --    3.24068   3.26194   3.28180   3.29788   3.31163
  Beta virt. eigenvalues --    3.31915   3.34621   3.35602   3.37226   3.38476
  Beta virt. eigenvalues --    3.40986   3.42226   3.43700   3.44941   3.47892
  Beta virt. eigenvalues --    3.50255   3.53682   3.57035   3.60153   3.63538
  Beta virt. eigenvalues --    3.64856   3.76929   3.95908   4.47135   4.57037
  Beta virt. eigenvalues --    4.62136   4.64256   4.72356   4.74015   4.74723
  Beta virt. eigenvalues --    4.86736   4.91329   5.03089   5.46462   5.81697
  Beta virt. eigenvalues --    5.84362   6.10549  22.21310  22.63225  58.49125
  Beta virt. eigenvalues --   58.49226  58.50340  58.50579  58.50798  58.55775
  Beta virt. eigenvalues --   58.56219  58.56285  58.56542  58.56767  95.62851
  Beta virt. eigenvalues --  106.32204 106.33230 106.40273
          Condensed to atoms (all electrons):
               1          2          3          4          5          6
     1  O    8.667618  -0.014490  -0.089961  -0.001844   0.038474  -0.003613
     2  N   -0.014490   7.373065   0.081996  -0.058598  -0.023000   0.016358
     3  C   -0.089961   0.081996   5.449593   0.245145  -0.111671   0.018501
     4  C   -0.001844  -0.058598   0.245145   5.176769   0.614514  -0.031429
     5  C    0.038474  -0.023000  -0.111671   0.614514   5.424305   0.192198
     6  C   -0.003613   0.016358   0.018501  -0.031429   0.192198   5.225043
     7  S   -0.000776   0.005311   0.000030  -0.002816  -0.132919   0.258892
     8  C   -0.072680   0.053960  -0.137821  -0.065818   0.203525  -0.076734
     9  C   -0.010516  -0.089747   0.006796  -0.002345  -0.070031   0.010070
    10  C   -0.011079  -0.086230   0.018002  -0.011109  -0.073370   0.004338
    11  C   -0.007520  -0.106114   0.306357  -0.042220  -0.005237  -0.002645
    12  C   -0.001301  -0.090106   0.312076  -0.075561  -0.007784  -0.001457
    13  H   -0.000581   0.002672  -0.035245   0.405588  -0.049066  -0.001743
    14  H    0.000071  -0.002563   0.003641   0.024158  -0.084202   0.420384
    15  H    0.000105  -0.002508  -0.000349   0.004806  -0.063064   0.407649
    16  H   -0.001079   0.017964  -0.002905   0.003046  -0.001367  -0.000461
    17  H   -0.000677   0.005509  -0.000397   0.001143  -0.005574   0.002300
    18  H    0.007480  -0.022038   0.001211  -0.000912   0.008306  -0.001027
    19  H    0.008159  -0.027581  -0.001364  -0.001521   0.020485  -0.001457
    20  H   -0.000406   0.005533  -0.000713   0.001396  -0.004118   0.002621
    21  H   -0.000665   0.003984   0.000759   0.001061   0.000483   0.002957
    22  H   -0.000440   0.001760  -0.057743   0.000013   0.008534  -0.000731
    23  H   -0.000357   0.005767  -0.047674   0.002908   0.001108  -0.000042
    24  H    0.006450  -0.024535  -0.032196   0.014837  -0.002561   0.000092
    25  H    0.008009  -0.029079  -0.027771   0.016117  -0.001015   0.000025
    26  H   -0.000905   0.010753  -0.048521  -0.001573  -0.000215  -0.000019
    27  H   -0.000543   0.014077  -0.061958  -0.005268   0.004292  -0.000610
    28  S   -0.000002  -0.002392   0.000828  -0.030406  -0.008493  -0.003983
    29  O    0.000020   0.006493  -0.005389   0.028269   0.013158   0.005115
    30  O    0.000100  -0.000059  -0.007520   0.025170   0.022326  -0.023984
    31  C    0.000002   0.000232  -0.000748   0.002747   0.004939  -0.000421
    32  H    0.000000  -0.000010   0.000031  -0.000094  -0.000509   0.000216
    33  H   -0.000000   0.000006   0.000013  -0.000028   0.000140   0.000179
    34  H    0.000000  -0.000003  -0.000020  -0.000436  -0.000032  -0.000400
               7          8          9         10         11         12
     1  O   -0.000776  -0.072680  -0.010516  -0.011079  -0.007520  -0.001301
     2  N    0.005311   0.053960  -0.089747  -0.086230  -0.106114  -0.090106
     3  C    0.000030  -0.137821   0.006796   0.018002   0.306357   0.312076
     4  C   -0.002816  -0.065818  -0.002345  -0.011109  -0.042220  -0.075561
     5  C   -0.132919   0.203525  -0.070031  -0.073370  -0.005237  -0.007784
     6  C    0.258892  -0.076734   0.010070   0.004338  -0.002645  -0.001457
     7  S   15.873823  -0.002055   0.002608  -0.000700  -0.000221   0.000963
     8  C   -0.002055   5.449037   0.326478   0.321724   0.014687   0.021962
     9  C    0.002608   0.326478   5.012102  -0.084994  -0.005240   0.004884
    10  C   -0.000700   0.321724  -0.084994   5.032229   0.005184  -0.006246
    11  C   -0.000221   0.014687  -0.005240   0.005184   5.029902  -0.080726
    12  C    0.000963   0.021962   0.004884  -0.006246  -0.080726   5.024013
    13  H    0.000011   0.012767  -0.000910  -0.001552  -0.001008   0.003163
    14  H   -0.041762   0.003061  -0.000014  -0.001844  -0.000195  -0.000048
    15  H   -0.042218   0.007939  -0.001069   0.005876   0.000304  -0.000059
    16  H    0.000559  -0.065525   0.412788   0.009213   0.000140  -0.001295
    17  H    0.000914  -0.033553   0.398879  -0.004228   0.000164  -0.000169
    18  H    0.000231  -0.035329   0.411487  -0.004197   0.000018  -0.000266
    19  H    0.000098  -0.040640  -0.002389   0.416637  -0.000113   0.000033
    20  H   -0.000407  -0.038617  -0.003756   0.401897  -0.000063   0.000136
    21  H   -0.000946  -0.056680   0.008456   0.409610  -0.001069  -0.000043
    22  H    0.000000  -0.002451   0.000094  -0.001296   0.412097   0.008611
    23  H    0.000004  -0.001015   0.000126  -0.000060   0.406597  -0.002458
    24  H   -0.000014   0.000946  -0.000113  -0.000094   0.412237  -0.003848
    25  H   -0.000048  -0.002931  -0.000169   0.000080  -0.004253   0.409097
    26  H   -0.000004  -0.001040  -0.000147   0.000205  -0.002511   0.406064
    27  H   -0.000009   0.000183  -0.001297   0.000068   0.009061   0.412040
    28  S    0.310467   0.004570  -0.003801  -0.000177  -0.000703   0.002318
    29  O   -0.074591  -0.009552  -0.000581   0.000151   0.000250  -0.007107
    30  O   -0.082493  -0.004528   0.000749   0.000029   0.001012   0.000682
    31  C   -0.052744  -0.001289   0.000265   0.000051   0.000051  -0.000216
    32  H   -0.000816   0.000153  -0.000075  -0.000002  -0.000000  -0.000008
    33  H    0.001567  -0.000040  -0.000001   0.000001  -0.000000  -0.000006
    34  H    0.002412   0.000122   0.000001  -0.000001  -0.000000   0.000010
              13         14         15         16         17         18
     1  O   -0.000581   0.000071   0.000105  -0.001079  -0.000677   0.007480
     2  N    0.002672  -0.002563  -0.002508   0.017964   0.005509  -0.022038
     3  C   -0.035245   0.003641  -0.000349  -0.002905  -0.000397   0.001211
     4  C    0.405588   0.024158   0.004806   0.003046   0.001143  -0.000912
     5  C   -0.049066  -0.084202  -0.063064  -0.001367  -0.005574   0.008306
     6  C   -0.001743   0.420384   0.407649  -0.000461   0.002300  -0.001027
     7  S    0.000011  -0.041762  -0.042218   0.000559   0.000914   0.000231
     8  C    0.012767   0.003061   0.007939  -0.065525  -0.033553  -0.035329
     9  C   -0.000910  -0.000014  -0.001069   0.412788   0.398879   0.411487
    10  C   -0.001552  -0.001844   0.005876   0.009213  -0.004228  -0.004197
    11  C   -0.001008  -0.000195   0.000304   0.000140   0.000164   0.000018
    12  C    0.003163  -0.000048  -0.000059  -0.001295  -0.000169  -0.000266
    13  H    0.508793   0.002250  -0.000016  -0.000031  -0.000001   0.000004
    14  H    0.002250   0.490467  -0.014279  -0.000040  -0.000016   0.000001
    15  H   -0.000016  -0.014279   0.530546   0.000092  -0.000053   0.000013
    16  H   -0.000031  -0.000040   0.000092   0.537163  -0.019855  -0.015391
    17  H   -0.000001  -0.000016  -0.000053  -0.019855   0.566179  -0.020835
    18  H    0.000004   0.000001   0.000013  -0.015391  -0.020835   0.528429
    19  H    0.000005   0.000004  -0.000034  -0.000013  -0.000259   0.001894
    20  H    0.000002   0.000014  -0.000137   0.000081   0.001215  -0.000160
    21  H   -0.000019   0.000001  -0.000192  -0.000139   0.000085   0.000036
    22  H    0.000155   0.000004   0.000001  -0.000001  -0.000000  -0.000000
    23  H    0.000579   0.000001   0.000000   0.000000  -0.000000   0.000000
    24  H    0.000003   0.000000  -0.000000  -0.000000   0.000000  -0.000002
    25  H   -0.000031  -0.000000   0.000000   0.000006   0.000000  -0.000007
    26  H    0.000109  -0.000001   0.000000   0.000007  -0.000000  -0.000000
    27  H   -0.000182  -0.000002   0.000000   0.000237   0.000009  -0.000000
    28  S    0.003021  -0.013343   0.003088  -0.000951  -0.000913   0.000352
    29  O   -0.000329   0.000953  -0.000800  -0.000025   0.000163   0.000006
    30  O   -0.000842   0.011316  -0.001304   0.000082   0.000025  -0.000010
    31  C   -0.000099   0.000424  -0.000076   0.000035   0.000047  -0.000002
    32  H    0.000000   0.000005  -0.000000  -0.000000  -0.000000   0.000000
    33  H    0.000000  -0.000011   0.000000   0.000000   0.000000  -0.000000
    34  H    0.000001   0.000028  -0.000000  -0.000000  -0.000000   0.000000
              19         20         21         22         23         24
     1  O    0.008159  -0.000406  -0.000665  -0.000440  -0.000357   0.006450
     2  N   -0.027581   0.005533   0.003984   0.001760   0.005767  -0.024535
     3  C   -0.001364  -0.000713   0.000759  -0.057743  -0.047674  -0.032196
     4  C   -0.001521   0.001396   0.001061   0.000013   0.002908   0.014837
[...]
    29  O   -0.510769   0.000025
    30  O   -0.570690   0.000048
    31  C    0.150935  -0.000004
 Electronic spatial extent (au):  <R**2>=           4772.8987
 Charge=             -0.0000 electrons
 Dipole moment (field-independent basis, Debye):
    X=              4.2486    Y=              1.8567    Z=             -2.0513  Tot=              5.0701
 Quadrupole moment (field-independent basis, Debye-Ang):
   XX=           -108.2330   YY=           -109.0633   ZZ=           -115.9326
   XY=              5.7089   XZ=              6.3787   YZ=             -0.6195
 Traceless Quadrupole moment (field-independent basis, Debye-Ang):
   XX=              2.8433   YY=              2.0130   ZZ=             -4.8563
   XY=              5.7089   XZ=              6.3787   YZ=             -0.6195
 Octapole moment (field-independent basis, Debye-Ang**2):
  XXX=            190.0733  YYY=             -3.8214  ZZZ=              0.3924  XYY=            -14.2266
  XXY=             -7.8823  XXZ=             -8.3788  XZZ=             -0.9341  YZZ=              6.0386
  YYZ=             -2.3297  XYZ=              0.5334
 Hexadecapole moment (field-independent basis, Debye-Ang**3):
 XXXX=          -3989.7379 YYYY=          -1374.3519 ZZZZ=           -668.8924 XXXY=            -14.1938
 XXXZ=            120.5922 YYYX=            -15.6187 YYYZ=              0.8609 ZZZX=            -11.9818
 ZZZY=             -1.8555 XXYY=           -937.7160 XXZZ=           -855.6889 YYZZ=           -347.9054
 XXYZ=             -4.2908 YYXZ=             -4.4228 ZZXY=             14.8511
 N-N= 1.520775424169D+03 E-N=-6.496936492147D+03  KE= 1.459878091940D+03
                          Isotropic Fermi Contact Couplings
        Atom                 a.u.       MegaHertz       Gauss      10(-4) cm-1
     1  O(17)              0.08645     -52.40660     -18.69998     -17.48096
     2  N(14)              0.10660      34.44235      12.28989      11.48873
     3  C(13)             -0.01490     -16.74715      -5.97580      -5.58625
     4  C(13)              0.00022       0.24791       0.08846       0.08269
     5  C(13)             -0.00035      -0.39749      -0.14183      -0.13259
     6  C(13)             -0.00056      -0.63425      -0.22632      -0.21156
     7  S(33)              0.00001       0.00340       0.00121       0.00113
     8  C(13)             -0.01486     -16.71030      -5.96265      -5.57395
     9  C(13)              0.01731      19.45801       6.94310       6.49049
    10  C(13)              0.01335      15.01353       5.35720       5.00797
    11  C(13)              0.01214      13.64253       4.86799       4.55066
    12  C(13)              0.01840      20.68341       7.38036       6.89924
    13  H(1)              -0.00028      -1.23508      -0.44071      -0.41198
    14  H(1)              -0.00003      -0.15530      -0.05542      -0.05180
    15  H(1)               0.00006       0.24886       0.08880       0.08301
    16  H(1)              -0.00033      -1.48482      -0.52982      -0.49528
    17  H(1)               0.00044       1.95269       0.69677       0.65135
    18  H(1)              -0.00050      -2.24615      -0.80148      -0.74923
    19  H(1)              -0.00051      -2.28813      -0.81646      -0.76324
    20  H(1)               0.00023       1.01712       0.36293       0.33927
    21  H(1)              -0.00039      -1.75465      -0.62610      -0.58529
    22  H(1)              -0.00039      -1.73534      -0.61921      -0.57885
    23  H(1)               0.00018       0.78449       0.27992       0.26168
    24  H(1)              -0.00048      -2.13294      -0.76109      -0.71147
    25  H(1)              -0.00049      -2.19051      -0.78163      -0.73067
    26  H(1)               0.00049       2.18996       0.78143       0.73049
    27  H(1)              -0.00034      -1.51416      -0.54029      -0.50507
    28  S(33)             -0.00001      -0.00452      -0.00161      -0.00151
    29  O(17)             -0.00001       0.00498       0.00178       0.00166
    30  O(17)             -0.00001       0.00851       0.00304       0.00284
    31  C(13)              0.00001       0.01343       0.00479       0.00448
    32  H(1)              -0.00000      -0.00048      -0.00017      -0.00016
    33  H(1)               0.00000       0.00654       0.00233       0.00218
    34  H(1)               0.00000       0.00033       0.00012       0.00011
 --------------------------------------------------------
       Center         ----  Spin Dipole Couplings  ----
                      3XX-RR        3YY-RR        3ZZ-RR
 --------------------------------------------------------
     1   Atom       -0.601930     -0.909368      1.511298
     2   Atom       -0.306776     -0.568811      0.875588
     3   Atom       -0.007525      0.010324     -0.002800
     4   Atom        0.006969     -0.005521     -0.001448
     5   Atom        0.009650     -0.006917     -0.002734
     6   Atom        0.002029     -0.001300     -0.000729
     7   Atom        0.003321     -0.001504     -0.001817
     8   Atom        0.000236      0.005519     -0.005755
     9   Atom       -0.010567      0.002060      0.008507
    10   Atom       -0.007119      0.017189     -0.010069
    11   Atom        0.002314      0.000363     -0.002677
    12   Atom       -0.016655      0.018657     -0.002002
    13   Atom        0.001623     -0.001180     -0.000443
    14   Atom        0.001411     -0.001231     -0.000180
    15   Atom        0.001145     -0.000673     -0.000472
    16   Atom        0.003448     -0.003307     -0.000141
    17   Atom        0.000391      0.002167     -0.002558
    18   Atom       -0.002311      0.003950     -0.001639
    19   Atom       -0.004994      0.010361     -0.005367
    20   Atom       -0.001159      0.003915     -0.002756
    21   Atom       -0.005369      0.000417      0.004951
    22   Atom       -0.005175     -0.002176      0.007351
    23   Atom       -0.002544      0.003489     -0.000945
    24   Atom       -0.002445      0.005167     -0.002722
    25   Atom       -0.004371      0.008659     -0.004288
    26   Atom       -0.002643      0.005270     -0.002627
    27   Atom        0.000085      0.001758     -0.001843
    28   Atom        0.001437     -0.000737     -0.000701
    29   Atom        0.001509     -0.000709     -0.000800
    30   Atom        0.001119     -0.000622     -0.000498
    31   Atom        0.000678     -0.000336     -0.000342
    32   Atom        0.000630     -0.000314     -0.000316
    33   Atom        0.000524     -0.000252     -0.000273
    34   Atom        0.000554     -0.000287     -0.000267
 --------------------------------------------------------
                        XY            XZ            YZ
 --------------------------------------------------------
     1   Atom       -0.195045      1.091785     -0.482611
     2   Atom       -0.133370      0.672904     -0.290432
     3   Atom       -0.006716     -0.002363      0.008080
     4   Atom       -0.006259     -0.006264      0.003628
     5   Atom        0.002156     -0.006897     -0.001845
     6   Atom        0.000894     -0.001824     -0.000416
     7   Atom        0.001526      0.000571      0.000377
     8   Atom        0.011930     -0.002888     -0.004286
     9   Atom        0.010693      0.008600      0.021936
    10   Atom       -0.012693      0.005432     -0.018086
    11   Atom        0.014216      0.014126      0.017278
    12   Atom       -0.005204      0.000930     -0.022616
    13   Atom       -0.002617     -0.002929      0.001926
    14   Atom        0.000294     -0.001659     -0.000238
    15   Atom        0.001535     -0.001639     -0.000960
    16   Atom        0.003878      0.007375      0.001991
    17   Atom        0.005139      0.000606      0.001032
    18   Atom        0.004969      0.002147      0.008036
    19   Atom       -0.000951     -0.001365     -0.005568
    20   Atom        0.003175     -0.001000     -0.003331
    21   Atom        0.000777      0.000224     -0.007283
    22   Atom        0.000790      0.002962      0.005484
    23   Atom       -0.000844      0.000005      0.004774
    24   Atom        0.005348      0.001723      0.007387
    25   Atom       -0.001235     -0.001171     -0.005695
    26   Atom       -0.003464     -0.000572      0.000599
    27   Atom       -0.006276      0.005195     -0.004024
    28   Atom       -0.000187     -0.000196      0.000030
    29   Atom       -0.000546      0.000328     -0.000077
    30   Atom       -0.000338     -0.000566      0.000141
    31   Atom       -0.000040     -0.000053      0.000002
    32   Atom        0.000042      0.000066      0.000003
    33   Atom       -0.000121     -0.000025      0.000004
    34   Atom        0.000025     -0.000141     -0.000004
 --------------------------------------------------------


 ---------------------------------------------------------------------------------
              Anisotropic Spin Dipole Couplings in Principal Axis System
 ---------------------------------------------------------------------------------

       Atom             a.u.   MegaHertz   Gauss  10(-4) cm-1        Axes

              Baa    -1.0658    77.121    27.519    25.725  0.9042 -0.1288 -0.4072
     1 O(17)  Bbb    -0.9993    72.309    25.802    24.120  0.1870  0.9766  0.1064
              Bcc     2.0651  -149.429   -53.320   -49.844  0.3839 -0.1724  0.9071
 
              Baa    -0.6256   -24.128    -8.609    -8.048  0.1811  0.9775  0.1079
     2 N(14)  Bbb    -0.6111   -23.569    -8.410    -7.862  0.8957 -0.1186 -0.4286
              Bcc     1.2367    47.696    17.019    15.910  0.4061 -0.1743  0.8970
 
              Baa    -0.0098    -1.315    -0.469    -0.438  0.9347  0.3454 -0.0832
     3 C(13)  Bbb    -0.0065    -0.870    -0.310    -0.290  0.2117 -0.3534  0.9112
              Bcc     0.0163     2.185     0.779     0.729 -0.2854  0.8693  0.4035
 
              Baa    -0.0083    -1.119    -0.399    -0.373  0.2865  0.9303 -0.2291
     4 C(13)  Bbb    -0.0048    -0.640    -0.228    -0.214  0.4950  0.0610  0.8667
              Bcc     0.0131     1.760     0.628     0.587  0.8203 -0.3618 -0.4430
 
              Baa    -0.0076    -1.025    -0.366    -0.342  0.0526  0.9080  0.4157
     5 C(13)  Bbb    -0.0055    -0.733    -0.261    -0.244  0.4274 -0.3967  0.8124
              Bcc     0.0131     1.758     0.627     0.586  0.9025  0.1349 -0.4089
 
              Baa    -0.0016    -0.220    -0.079    -0.074  0.4740 -0.1933  0.8591
     6 C(13)  Bbb    -0.0015    -0.203    -0.072    -0.068 -0.1016  0.9571  0.2715
              Bcc     0.0032     0.423     0.151     0.141  0.8747  0.2160 -0.4340
 
              Baa    -0.0021    -0.087    -0.031    -0.029 -0.1394  0.7425 -0.6552
     7 S(33)  Bbb    -0.0017    -0.070    -0.025    -0.023 -0.2689  0.6084  0.7466
              Bcc     0.0038     0.157     0.056     0.052  0.9530  0.2803  0.1149
 
              Baa    -0.0094    -1.263    -0.451    -0.421  0.7470 -0.6441 -0.1649
     8 C(13)  Bbb    -0.0069    -0.924    -0.330    -0.308  0.2721  0.0699  0.9597
              Bcc     0.0163     2.187     0.780     0.730  0.6066  0.7618 -0.2275
 
              Baa    -0.0184    -2.476    -0.883    -0.826 -0.5275  0.7335 -0.4286
     9 C(13)  Bbb    -0.0133    -1.788    -0.638    -0.596  0.7931  0.2443 -0.5580
              Bcc     0.0318     4.263     1.521     1.422  0.3045  0.6343  0.7106
 
              Baa    -0.0192    -2.572    -0.918    -0.858  0.1015  0.4713  0.8761
    10 C(13)  Bbb    -0.0120    -1.610    -0.575    -0.537  0.9354  0.2547 -0.2454
              Bcc     0.0312     4.183     1.492     1.395 -0.3388  0.8444 -0.4150
 
              Baa    -0.0186    -2.492    -0.889    -0.831 -0.0868 -0.6352  0.7675
    11 C(13)  Bbb    -0.0119    -1.594    -0.569    -0.532  0.8100 -0.4935 -0.3169
              Bcc     0.0304     4.086     1.458     1.363  0.5800  0.5941  0.5573
 
              Baa    -0.0189    -2.533    -0.904    -0.845  0.7533  0.4129  0.5119
    12 C(13)  Bbb    -0.0148    -1.985    -0.708    -0.662 -0.6505  0.3534  0.6723
              Bcc     0.0337     4.517     1.612     1.507 -0.0967  0.8394 -0.5348
 
              Baa    -0.0028    -1.501    -0.536    -0.501  0.2553  0.8804 -0.3998
    13 H(1)   Bbb    -0.0025    -1.337    -0.477    -0.446  0.6361  0.1585  0.7552
              Bcc     0.0053     2.839     1.013     0.947  0.7282 -0.4470 -0.5195
 
              Baa    -0.0013    -0.691    -0.247    -0.231  0.2091  0.8456  0.4911
    14 H(1)   Bbb    -0.0012    -0.639    -0.228    -0.213  0.4984 -0.5242  0.6905
              Bcc     0.0025     1.330     0.475     0.444  0.8414  0.1003 -0.5311
 
              Baa    -0.0016    -0.830    -0.296    -0.277 -0.3366  0.8972  0.2860
    15 H(1)   Bbb    -0.0015    -0.795    -0.284    -0.265  0.5515 -0.0584  0.8322
              Bcc     0.0030     1.625     0.580     0.542  0.7633  0.4378 -0.4751
 
              Baa    -0.0063    -3.369    -1.202    -1.124  0.6478 -0.4108 -0.6415
    16 H(1)   Bbb    -0.0043    -2.270    -0.810    -0.757  0.0481  0.8625 -0.5037
              Bcc     0.0106     5.638     2.012     1.881  0.7603  0.2955  0.5785
 
              Baa    -0.0040    -2.117    -0.755    -0.706  0.7442 -0.6496  0.1558
    17 H(1)   Bbb    -0.0027    -1.429    -0.510    -0.477 -0.2011  0.0046  0.9796
              Bcc     0.0066     3.546     1.265     1.183  0.6370  0.7603  0.1272
 
              Baa    -0.0077    -4.104    -1.464    -1.369  0.2861 -0.6240  0.7271
    18 H(1)   Bbb    -0.0040    -2.127    -0.759    -0.709  0.8899 -0.1084 -0.4432
              Bcc     0.0117     6.230     2.223     2.078  0.3554  0.7738  0.5243
 
              Baa    -0.0080    -4.261    -1.520    -1.421  0.4705  0.2785  0.8373
    19 H(1)   Bbb    -0.0042    -2.220    -0.792    -0.741  0.8819 -0.1173 -0.4565
              Bcc     0.0121     6.481     2.313     2.162 -0.0289  0.9532 -0.3008
 
              Baa    -0.0042    -2.230    -0.796    -0.744 -0.1541  0.4271  0.8910
    20 H(1)   Bbb    -0.0025    -1.342    -0.479    -0.448  0.9081 -0.2941  0.2980
              Bcc     0.0067     3.572     1.275     1.191  0.3893  0.8551 -0.3425
 
              Baa    -0.0059    -3.173    -1.132    -1.058  0.7977 -0.4937 -0.3463
    21 H(1)   Bbb    -0.0044    -2.332    -0.832    -0.778  0.6028  0.6357  0.4822
              Bcc     0.0103     5.505     1.964     1.836 -0.0179 -0.5934  0.8047
 
              Baa    -0.0060    -3.178    -1.134    -1.060  0.9147  0.2590 -0.3103
    22 H(1)   Bbb    -0.0045    -2.391    -0.853    -0.798 -0.3566  0.8785 -0.3179
              Bcc     0.0104     5.569     1.987     1.858  0.1903  0.4014  0.8959
 
              Baa    -0.0041    -2.203    -0.786    -0.735 -0.2859 -0.5314  0.7974
    23 H(1)   Bbb    -0.0025    -1.314    -0.469    -0.438  0.9551 -0.0907  0.2820
              Bcc     0.0066     3.517     1.255     1.173 -0.0775  0.8422  0.5335
 
              Baa    -0.0076    -4.067    -1.451    -1.357  0.3451 -0.5734  0.7430
    24 H(1)   Bbb    -0.0041    -2.188    -0.781    -0.730  0.8659 -0.1109 -0.4878
              Bcc     0.0117     6.255     2.232     2.086  0.3621  0.8117  0.4583
 
              Baa    -0.0073    -3.873    -1.382    -1.292  0.4725  0.3292  0.8175
    25 H(1)   Bbb    -0.0036    -1.913    -0.683    -0.638  0.8799 -0.1245 -0.4585
              Bcc     0.0108     5.786     2.065     1.930 -0.0492  0.9360 -0.3485
 
              Baa    -0.0040    -2.147    -0.766    -0.716  0.9156  0.3261  0.2352
    26 H(1)   Bbb    -0.0026    -1.393    -0.497    -0.465 -0.1925 -0.1582  0.9685
              Bcc     0.0066     3.540     1.263     1.181 -0.3531  0.9320  0.0820
 
              Baa    -0.0064    -3.432    -1.225    -1.145  0.7475  0.2760 -0.6042
    27 H(1)   Bbb    -0.0042    -2.234    -0.797    -0.745  0.2607  0.7147  0.6490
              Bcc     0.0106     5.665     2.022     1.890 -0.6110  0.6427 -0.4623
 
              Baa    -0.0008    -0.031    -0.011    -0.010  0.0518  0.9454 -0.3217
    28 S(33)  Bbb    -0.0007    -0.029    -0.010    -0.010  0.1131  0.3145  0.9425
              Bcc     0.0015     0.060     0.022     0.020  0.9922 -0.0852 -0.0907
 
              Baa    -0.0008     0.061     0.022     0.020 -0.1163  0.0921  0.9889
    29 O(17)  Bbb    -0.0008     0.061     0.022     0.020  0.2348  0.9700 -0.0628
              Bcc     0.0017    -0.122    -0.043    -0.041  0.9651 -0.2249  0.1345
 
              Baa    -0.0007     0.052     0.018     0.017 -0.0600  0.7593 -0.6480
    30 O(17)  Bbb    -0.0006     0.047     0.017     0.016  0.3438  0.6252  0.7007
              Bcc     0.0014    -0.099    -0.035    -0.033  0.9371 -0.1808 -0.2985
 
              Baa    -0.0003    -0.046    -0.016    -0.015  0.0539  0.0671  0.9963
    31 C(13)  Bbb    -0.0003    -0.045    -0.016    -0.015  0.0358  0.9970 -0.0691
              Bcc     0.0007     0.092     0.033     0.031  0.9979 -0.0394 -0.0513
 
              Baa    -0.0003    -0.171    -0.061    -0.057 -0.0705  0.0273  0.9971
    32 H(1)   Bbb    -0.0003    -0.169    -0.060    -0.056 -0.0427  0.9986 -0.0304
              Bcc     0.0006     0.339     0.121     0.113  0.9966  0.0447  0.0693
 
              Baa    -0.0003    -0.146    -0.052    -0.049  0.0344  0.0169  0.9993
    33 H(1)   Bbb    -0.0003    -0.144    -0.051    -0.048  0.1498  0.9885 -0.0219
              Bcc     0.0005     0.290     0.104     0.097  0.9881 -0.1504 -0.0315
 
              Baa    -0.0003    -0.155    -0.055    -0.052  0.1669 -0.1322  0.9771
    34 H(1)   Bbb    -0.0003    -0.153    -0.055    -0.051 -0.0068  0.9908  0.1352
              Bcc     0.0006     0.308     0.110     0.103  0.9860  0.0292 -0.1644
 

 ---------------------------------------------------------------------------------

 No NMR shielding tensors so no spin-rotation constants.
 Leave Link  601 at Mon Jun 17 21:28:03 2019, MaxMem=  8053063680 cpu:               0.0 elap:               0.3
 (Enter /data2/g16/g16/l9999.exe)
 1\1\GINC-CU09\SP\UPBE1PBE\Gen\C10H18N1O3S2(2)\ROOT\17-Jun-2019\0\\#p g
 en 6d pbe1pbe\\start preoptimized\\0,2\O,0,-3.761482,0.206249,0.874201
 \N,0,-2.608431,0.035069,0.381221\C,0,-2.160833,-1.267829,-0.156732\C,0
 ,-0.881083,-0.850292,-0.819939\C,0,-0.605804,0.448974,-0.658188\C,0,0.
 604945,1.125576,-1.199188\S,0,1.942367,1.441161,0.033285\C,0,-1.692106
 ,1.165435,0.115541\C,0,-1.234336,1.76511,1.448811\C,0,-2.424699,2.2192
 54,-0.719114\C,0,-3.211301,-1.808744,-1.13018\C,0,-1.919442,-2.258264,
 0.987431\H,0,-0.240933,-1.559674,-1.337713\H,0,1.061589,0.539449,-2.00
 3342\H,0,0.388548,2.129395,-1.583368\H,0,-0.665315,1.03724,2.036419\H,
 0,-0.603983,2.646265,1.290761\H,0,-2.119128,2.069891,2.018822\H,0,-3.3
 16992,2.544735,-0.177646\H,0,-1.786385,3.09343,-0.890869\H,0,-2.732898
 ,1.809968,-1.687586\H,0,-3.367885,-1.117258,-1.962764\H,0,-2.894784,-2
 .775133,-1.532276\H,0,-4.161869,-1.939348,-0.600738\H,0,-2.848551,-2.4
 04314,1.55017\H,0,-1.593377,-3.225713,0.591768\H,0,-1.145709,-1.88615,
 1.669099\S,0,2.758623,-0.534688,0.110076\O,0,2.336632,-1.21299,1.35292
 4\O,0,2.507839,-1.183262,-1.203759\C,0,4.510088,-0.16908,0.247546\H,0,
 4.659952,0.448218,1.133987\H,0,4.999013,-1.139987,0.363806\H,0,4.83039
 8,0.334114,-0.666195\\Version=AM64L-G16RevB.01\State=2-A\HF=-1467.5484
 347\S2=0.755018\S2-1=0.\S2A=0.750017\RMSD=8.881e-09\Dipole=1.6751867,0
 .727422,-0.8022275\Quadrupole=2.1087494,1.4785605,-3.5873099,4.2402763
 ,4.759311,-0.4562466\PG=C01 [X(C10H18N1O3S2)]\\@


 THE UNDERLYING PHYSICAL LAWS NECESSARY FOR THE 
 MATHEMATICAL THEORY OF A LARGE PART OF PHYSICS AND THE
 WHOLE OF CHEMISTRY ARE THUS COMPLETELY KNOWN, AND THE
 DIFFICULTY IS ONLY THAT THE EXACT APPLICATION OF THESE
 LAWS LEADS TO EQUATIONS MUCH TOO COMPLICATED 
 TO BE SOLUBLE.

                                        -- P. A. M. DIRAC, 1929
 Elapsed time:       0 days  0 hours  2 minutes 39.8 seconds.
 File lengths (MBytes):  RWF=    181 Int=      0 D2E=      0 Chk=     15 Scr=      1
 Normal termination of Gaussian 16 at Mon Jun 17 21:28:03 2019.
