 Entering Gaussian System, Link 0=g16
 AtFile(1): /home/malgo/Basis_sets/n07d_pbe0.gbs
            -H 0
             6-31G
             S   1 1.00       0.000000000000
                  0.4000000000D+00  0.10000000D+01
             P   1 1.00       0.000000000000
                  0.7500000000D+00  0.10000000D+01
             ****
             -He 0
             6-31+G**
             ****
             -Li 0
             6-31+G**
             ****
             -Be 0
             6-31+G**
             ****
             -B 0
             6-31G
             S   1 1.00       0.000000000000
                  0.7000000000D+01  0.1000000000D+01
             P   1 1.00       0.000000000000
                  0.3500000000D-01  0.1000000000D+01
             D   1 1.00
                  0.3430000000D+00  0.1000000000D+01
             ****
             -C 0
             6-31G
             S   1 1.00       0.000000000000
                  0.8700000000D+01  0.1000000000D+01
             P   1 1.00       0.000000000000
                  0.5000000000D-01  0.1000000000D+01
             D   1 1.00
                  0.8200000000D+00  0.1000000000D+01
             ****
             -N 0
             6-31G
             S   1 1.00       0.000000000000
                  0.1370000000D+02  0.1000000000D+01
             P   1 1.00       0.000000000000
                  0.5300000000D-01  0.1000000000D+01
             D   1 1.00       0.000000000000
                  0.1015000000D+01  0.1000000000D+01
             ****
             -O 0
             6-31G
             S   1 1.00
                  0.1600000000D+02  0.1000000000D+01
             P   1 1.00       0.000000000000
                  0.6500000000D-01  0.1000000000D+01
             D   1 1.00        0.000000000000
                  0.1190000000D+01  0.1000000000D+01
             D   1 1.00        0.000000000000
                  0.1800000000D+00  0.1000000000D+01
             ****
             -F 0
             6-31G
             S   1 1.00
                  0.1770000000D+02  0.1000000000D+01
             P   1 1.00       0.000000000000
                  0.8300000000D-01  0.1000000000D+01
             D   1 1.00       0.000000000000
                  1.3700000000D+00  0.1000000000D+01
             D   1 1.00       0.000000000000
                  0.2300000000D+00  0.1000000000D+01
             ****
             -Ne 0
             6-31+G**
             ****
             -Na 0
             6-31+G**
             ****
             -Mg 0
             6-31+G**
             ****
             -Al 0
             6-31G
             S   1 1.00      0.000000000000
                  0.3100000000D+01  0.1000000000D+01
             P   1 1.00      0.000000000000
                  0.1500000000D-01  0.1000000000D+01
             D   1 1.00      0.000000000000
                  0.1890000000D+00  0.1000000000D+01
             ****
             -Si 0
             6-31G
             S   1 1.00      0.000000000000
                  0.5000000000D+01  0.1000000000D+01
             P   1 1.00       0.000000000000
                  0.3300000000D-01  0.1000000000D+01
             D   1 1.0        0.000000000000
                  0.2750000000D+00  0.1000000000D+01
             ****
             -P  0
             6-31G
             S   1 1.00       0.000000000000
                  0.6300000000D+01  0.1000000000D+01
             P   1 1.00       0.000000000000
                  0.3500000000D-01  0.1000000000D+01
             D   1 1.00       0.000000000000
                  0.3730000000D+00  0.1000000000D+01
             ****
             -S  0
             6-31G
             S   1  1.00      0.000000000000
                  0.7500000000D+01  0.1000000000D+01
             P   1 1.00       0.000000000000
                  0.4100000000D-01  0.1000000000D+01
             D   1 1.00       0.000000000000
                  0.4790000000D+00  0.1000000000D+01
             ****
            -Cl 0
             6-31G
             S   1 1.00       0.000000000000
                  0.8500000000D+01  0.1000000000D+01
             P   1 1.00       0.000000000000
                  0.4800000000D-01  0.1000000000D+01
             D   1 1.00       0.000000000000
                  0.6000000000D+00  0.1000000000D+01
             D   1 1.00       0.000000000000
                  0.1960000000D+00  0.1000000000D+01
             ****
            -Br 0
             S   3 1.00       0.000000000000
                  0.4721881000D+01  0.1749732514D+00
                  0.2257555000D+01 -0.7074172290D+00
                  0.3896080000D+00  0.1258999543D+01
             S   1 1.00       0.000000000000
                  0.1471340000D+00  0.1000000000D+01
             P   3 1.00       0.000000000000
                  0.1896942000D+01 -0.2464576731D+00
                  0.9108990000D+00  0.3623179892D+00
                  0.3168550000D+00  0.8338469725D+00
             P   1 1.00       0.000000000000
                  0.1095030000D+00  0.1000000000D+01
             P   1 1.00       0.000000000000
                  0.3609700000D-01  0.1000000000D+01
             D   1 1.00
                  0.4750000000D+00  0.1000000000D+01
             D   1 1.00
                  0.1280000000D+00  0.1000000000D+01
             ****
            -I   0
             S   3 1.00       0.000000000000
                  0.2122765000D+01  0.2063429899D+01
                  0.1770481000D+01 -0.2869526473D+01
                  0.3130840000D+00  0.1404747074D+01
             S   1 1.00       0.000000000000
                  0.1320000000D+00  0.1000000000D+01
             P   3 1.00       0.000000000000
                  0.2432887000D+01  0.7732753148D+00
                  0.2137249000D+01 -0.1020833156D+01
                  0.3145460000D+00  0.1095666871D+01
             P   1 1.00       0.000000000000
                  0.1049450000D+00  0.1000000000D+01
             P   1 1.00       0.000000000000
                  0.3264100000D-01  0.1000000000D+01
             D   1 1.00
                  0.300000000          1.00000000
             D   1 1.00
                  0.090000000          1.00000000
             ****
             -Zn 0
             SP   6 1.00       0.000000000000
                  0.6936492000D+02 -0.4440098182D-02 -0.7689261805D-02
                  0.2362082000D+02  0.7505253308D-01 -0.2997981924D-01
                  0.1018471000D+02  0.2533111104D+00  0.7082410821D-01
                  0.4334082000D+01 -0.2881897118D+00  0.4046140897D+00
                  0.1810918000D+01 -0.7267052298D+00  0.4882324876D+00
                  0.7148410000D+00 -0.2133439088D+00  0.1751969956D+00
             SP   3 1.00       0.000000000000
                  0.2823842000D+01  0.4898545031D-01 -0.1586762981D+00
                  0.1039543000D+01  0.2592794075D+00  0.8379326898D-01
                  0.1432640000D+00 -0.1115711463D+01  0.9840546881D+00
             SP   1 1.00       0.000000000000
                  0.4929600000D-01  0.1000000000D+01  0.1000000000D+01
             S    1 1.00       0.000000000000
                  0.1620000000D+00  0.1000000000D+01
             D    3 1.00       0.000000000000
                  0.3370764000D+02  0.9262647815D-01
                  0.9061106000D+01  0.4002979920D+00
                  0.2738383000D+01  0.6896607863D+00
             D    1 1.00
                  0.2440000000D+01  0.1000000000D+01
             D    1 1.00       0.000000000000
                  0.7302940000D+00  0.1000000000D+01
             D    1 1.00       0.000000000000
                  0.1620000000D+00  0.1000000000D+01
            ****
 Initial command:
 /data2/g16/g16/l1.exe "/tmp/Gau-2524.inp" -scrdir="/tmp/"
 Entering Link 1 = /data2/g16/g16/l1.exe PID=      2525.
  
 Copyright (c) 1988-2017, Gaussian, Inc.  All Rights Reserved.
  
 This is part of the Gaussian(R) 16 program.  It is based on
 the Gaussian(R) 09 system (copyright 2009, Gaussian, Inc.),
 the Gaussian(R) 03 system (copyright 2003, Gaussian, Inc.),
 the Gaussian(R) 98 system (copyright 1998, Gaussian, Inc.),
 the Gaussian(R) 94 system (copyright 1995, Gaussian, Inc.),
 the Gaussian 92(TM) system (copyright 1992, Gaussian, Inc.),
 the Gaussian 90(TM) system (copyright 1990, Gaussian, Inc.),
 the Gaussian 88(TM) system (copyright 1988, Gaussian, Inc.),
 the Gaussian 86(TM) system (copyright 1986, Carnegie Mellon
 University), and the Gaussian 82(TM) system (copyright 1983,
 Carnegie Mellon University). Gaussian is a federally registered
 trademark of Gaussian, Inc.
  
 This software contains proprietary and confidential information,
 including trade secrets, belonging to Gaussian, Inc.
  
 This software is provided under written license and may be
 used, copied, transmitted, or stored only in accord with that
 written license.
  
 The following legend is applicable only to US Government
 contracts under FAR:
  
                    RESTRICTED RIGHTS LEGEND
  
 Use, reproduction and disclosure by the US Government is
 subject to restrictions as set forth in subparagraphs (a)
 and (c) of the Commercial Computer Software - Restricted
 Rights clause in FAR 52.227-19.
  
 Gaussian, Inc.
 340 Quinnipiac St., Bldg. 40, Wallingford CT 06492
  
  
 ---------------------------------------------------------------
 Warning -- This program may not be used in any manner that
 competes with the business of Gaussian, Inc. or will provide
 assistance to any competitor of Gaussian, Inc.  The licensee
 of this program is prohibited from giving any competitor of
 Gaussian, Inc. access to this program.  By using this program,
 the user acknowledges that Gaussian, Inc. is engaged in the
 business of creating and licensing software in the field of
 computational chemistry and represents and warrants to the
 licensee that it is not a competitor of Gaussian, Inc. and that
 it will not use this program in any manner prohibited above.
 ---------------------------------------------------------------
  

 Cite this work as:
 Gaussian 16, Revision B.01,
 M. J. Frisch, G. W. Trucks, H. B. Schlegel, G. E. Scuseria, 
 M. A. Robb, J. R. Cheeseman, G. Scalmani, V. Barone, 
 G. A. Petersson, H. Nakatsuji, X. Li, M. Caricato, A. V. Marenich, 
 J. Bloino, B. G. Janesko, R. Gomperts, B. Mennucci, H. P. Hratchian, 
 J. V. Ortiz, A. F. Izmaylov, J. L. Sonnenberg, D. Williams-Young, 
 F. Ding, F. Lipparini, F. Egidi, J. Goings, B. Peng, A. Petrone, 
 T. Henderson, D. Ranasinghe, V. G. Zakrzewski, J. Gao, N. Rega, 
 G. Zheng, W. Liang, M. Hada, M. Ehara, K. Toyota, R. Fukuda, 
 J. Hasegawa, M. Ishida, T. Nakajima, Y. Honda, O. Kitao, H. Nakai, 
 T. Vreven, K. Throssell, J. A. Montgomery, Jr., J. E. Peralta, 
 F. Ogliaro, M. J. Bearpark, J. J. Heyd, E. N. Brothers, K. N. Kudin, 
 V. N. Staroverov, T. A. Keith, R. Kobayashi, J. Normand, 
 K. Raghavachari, A. P. Rendell, J. C. Burant, S. S. Iyengar, 
 J. Tomasi, M. Cossi, J. M. Millam, M. Klene, C. Adamo, R. Cammi, 
 J. W. Ochterski, R. L. Martin, K. Morokuma, O. Farkas, 
 J. B. Foresman, and D. J. Fox, Gaussian, Inc., Wallingford CT, 2016.
 
 ******************************************
 Gaussian 16:  AM64L-G16RevB.01 20-Dec-2017
                17-Jun-2019 
 ******************************************
 %chk=MTN_PBE0_0.24.chk
 %mem=60GB
 %nprocshared=12
 Will use up to   12 processors via shared memory.
 -----------------
 #p gen 6d pbe1pbe
 -----------------
 1/38=1,172=1/1;
 2/12=2,17=6,18=5,40=1/2;
 3/5=7,8=2,11=2,25=1,30=1,74=-13/1,2,3;
 4//1;
 5/5=2,38=5/2;
 6/7=2,8=2,9=2,10=2,28=1/1;
 99/5=1,9=1/99;
 Leave Link    1 at Mon Jun 17 21:25:20 2019, MaxMem=  8053063680 cpu:               0.0 elap:               0.0
 (Enter /data2/g16/g16/l101.exe)
 ------------------
 start preoptimized
 ------------------
 Symbolic Z-matrix:
 Charge =  0 Multiplicity = 2
 O                    -3.66838   0.16705   1.0457 
 N                    -2.64273   0.04487   0.31262 
 C                    -2.17063  -1.26783  -0.17143 
 C                    -0.86148  -0.86499  -0.78074 
 C                    -0.596     0.43917  -0.64839 
 C                     0.60985   1.12068  -1.19429 
 S                     1.94727   1.45096   0.03329 
 C                    -1.70191   1.16543   0.09104 
 C                    -1.28334   1.74551   1.44391 
 C                    -2.3855    2.23885  -0.76321 
 C                    -3.1525   -1.82834  -1.20368 
 C                    -2.01744  -2.22886   1.01193 
 H                    -0.20663  -1.57927  -1.27401 
 H                     1.06649   0.53455  -1.99354 
 H                     0.38365   2.11959  -1.58337 
 H                    -0.74862   1.00294   2.04132 
 H                    -0.63338   2.61687   1.31036 
 H                    -2.18283   2.05519   1.98452 
 H                    -3.29739   2.57414  -0.25605 
 H                    -1.73249   3.10813  -0.90067 
 H                    -2.6594    1.84427  -1.74639 
 H                    -3.25029  -1.15156  -2.06076 
 H                    -2.80658  -2.80453  -1.56658 
 H                    -4.13737  -1.95405  -0.74284 
 H                    -2.98575  -2.34061   1.51097 
 H                    -1.68158  -3.21101   0.66037 
 H                    -1.28781  -1.85185   1.7328 
 S                     2.75372  -0.52979   0.10518 
 O                     2.32683  -1.20809   1.34802 
 O                     2.49804  -1.16856  -1.20866 
 C                     4.51009  -0.18378   0.23775 
 H                     4.66975   0.42862   1.12909 
 H                     4.98921  -1.15959   0.34911 
 H                     4.8304    0.32431  -0.6711 
 
 ITRead=  0  0  0  0  0  0  0  0  0  0  0  0  0  0  0  0  0  0  0  0
 ITRead=  0  0  0  0  0  0  0  0  0  0  0  0  0  0
 MicOpt= -1 -1 -1 -1 -1 -1 -1 -1 -1 -1 -1 -1 -1 -1 -1 -1 -1 -1 -1 -1
 MicOpt= -1 -1 -1 -1 -1 -1 -1 -1 -1 -1 -1 -1 -1 -1
 NAtoms=     34 NQM=       34 NQMF=       0 NMMI=      0 NMMIF=      0
                NMic=       0 NMicF=      0.
                    Isotopes and Nuclear Properties:
 (Nuclear quadrupole moments (NQMom) in fm**2, nuclear magnetic moments (NMagM)
  in nuclear magnetons)

  Atom         1           2           3           4           5           6           7           8           9          10
 IAtWgt=          16          14          12          12          12          12          32          12          12          12
 AtmWgt=  15.9949146  14.0030740  12.0000000  12.0000000  12.0000000  12.0000000  31.9720718  12.0000000  12.0000000  12.0000000
 NucSpn=           0           2           0           0           0           0           0           0           0           0
 AtZEff=   0.0000000   0.0000000   0.0000000   0.0000000   0.0000000   0.0000000   0.0000000   0.0000000   0.0000000   0.0000000
 NQMom=    0.0000000   2.0440000   0.0000000   0.0000000   0.0000000   0.0000000   0.0000000   0.0000000   0.0000000   0.0000000
 NMagM=    0.0000000   0.4037610   0.0000000   0.0000000   0.0000000   0.0000000   0.0000000   0.0000000   0.0000000   0.0000000
 AtZNuc=   8.0000000   7.0000000   6.0000000   6.0000000   6.0000000   6.0000000  16.0000000   6.0000000   6.0000000   6.0000000

  Atom        11          12          13          14          15          16          17          18          19          20
 IAtWgt=          12          12           1           1           1           1           1           1           1           1
 AtmWgt=  12.0000000  12.0000000   1.0078250   1.0078250   1.0078250   1.0078250   1.0078250   1.0078250   1.0078250   1.0078250
 NucSpn=           0           0           1           1           1           1           1           1           1           1
 AtZEff=   0.0000000   0.0000000   0.0000000   0.0000000   0.0000000   0.0000000   0.0000000   0.0000000   0.0000000   0.0000000
 NQMom=    0.0000000   0.0000000   0.0000000   0.0000000   0.0000000   0.0000000   0.0000000   0.0000000   0.0000000   0.0000000
 NMagM=    0.0000000   0.0000000   2.7928460   2.7928460   2.7928460   2.7928460   2.7928460   2.7928460   2.7928460   2.7928460
 AtZNuc=   6.0000000   6.0000000   1.0000000   1.0000000   1.0000000   1.0000000   1.0000000   1.0000000   1.0000000   1.0000000

  Atom        21          22          23          24          25          26          27          28          29          30
 IAtWgt=           1           1           1           1           1           1           1          32          16          16
 AtmWgt=   1.0078250   1.0078250   1.0078250   1.0078250   1.0078250   1.0078250   1.0078250  31.9720718  15.9949146  15.9949146
 NucSpn=           1           1           1           1           1           1           1           0           0           0
 AtZEff=   0.0000000   0.0000000   0.0000000   0.0000000   0.0000000   0.0000000   0.0000000   0.0000000   0.0000000   0.0000000
 NQMom=    0.0000000   0.0000000   0.0000000   0.0000000   0.0000000   0.0000000   0.0000000   0.0000000   0.0000000   0.0000000
 NMagM=    2.7928460   2.7928460   2.7928460   2.7928460   2.7928460   2.7928460   2.7928460   0.0000000   0.0000000   0.0000000
 AtZNuc=   1.0000000   1.0000000   1.0000000   1.0000000   1.0000000   1.0000000   1.0000000  16.0000000   8.0000000   8.0000000

  Atom        31          32          33          34
 IAtWgt=          12           1           1           1
 AtmWgt=  12.0000000   1.0078250   1.0078250   1.0078250
 NucSpn=           0           1           1           1
 AtZEff=   0.0000000   0.0000000   0.0000000   0.0000000
 NQMom=    0.0000000   0.0000000   0.0000000   0.0000000
 NMagM=    0.0000000   2.7928460   2.7928460   2.7928460
 AtZNuc=   6.0000000   1.0000000   1.0000000   1.0000000
 Leave Link  101 at Mon Jun 17 21:25:20 2019, MaxMem=  8053063680 cpu:               0.0 elap:               0.2
 (Enter /data2/g16/g16/l202.exe)
                          Input orientation:                          
 ---------------------------------------------------------------------
 Center     Atomic      Atomic             Coordinates (Angstroms)
 Number     Number       Type             X           Y           Z
 ---------------------------------------------------------------------
      1          8           0       -3.668382    0.167049    1.045701
      2          7           0       -2.642731    0.044869    0.312621
      3          6           0       -2.170633   -1.267829   -0.171432
      4          6           0       -0.861483   -0.864992   -0.780739
      5          6           0       -0.596004    0.439174   -0.648388
      6          6           0        0.609845    1.120676   -1.194288
      7         16           0        1.947267    1.450961    0.033285
      8          6           0       -1.701906    1.165435    0.091041
      9          6           0       -1.283336    1.745510    1.443911
     10          6           0       -2.385499    2.238854   -0.763214
     11          6           0       -3.152501   -1.828344   -1.203680
     12          6           0       -2.017442   -2.228864    1.011931
     13          1           0       -0.206633   -1.579274   -1.274013
     14          1           0        1.066489    0.534549   -1.993542
     15          1           0        0.383648    2.119595   -1.583368
     16          1           0       -0.748615    1.002940    2.041319
     17          1           0       -0.633383    2.616865    1.310361
     18          1           0       -2.182828    2.055191    1.984522
     19          1           0       -3.297392    2.574135   -0.256046
     20          1           0       -1.732485    3.108130   -0.900669
     21          1           0       -2.659398    1.844268   -1.746386
     22          1           0       -3.250285   -1.151558   -2.060764
     23          1           0       -2.806584   -2.804533   -1.566576
     24          1           0       -4.137369   -1.954048   -0.742838
     25          1           0       -2.985751   -2.340614    1.510970
     26          1           0       -1.681577   -3.211013    0.660368
     27          1           0       -1.287809   -1.851850    1.732799
     28         16           0        2.753723   -0.529788    0.105176
     29          8           0        2.326832   -1.208090    1.348024
     30          8           0        2.498039   -1.168562   -1.208659
     31          6           0        4.510088   -0.183780    0.237746
     32          1           0        4.669752    0.428618    1.129087
     33          1           0        4.989213   -1.159587    0.349106
     34          1           0        4.830398    0.324314   -0.671095
 ---------------------------------------------------------------------
                    Distance matrix (angstroms):
                    1          2          3          4          5
     1  O    0.000000
     2  N    1.266607   0.000000
     3  C    2.404899   1.476604   0.000000
     4  C    3.504237   2.279502   1.499135   0.000000
     5  C    3.519019   2.295236   2.370823   1.337477   0.000000
     6  C    4.922416   3.742644   3.805555   2.505735   1.488799
     7  S    5.848840   4.808659   4.938707   3.730328   2.820748
     8  C    2.403160   1.479837   2.491861   2.364095   1.515661
     9  C    2.887656   2.453559   3.532257   3.455683   2.560596
    10  C    3.034854   2.457063   3.562752   3.457859   2.540536
    11  C    3.050810   2.463323   1.530940   2.521049   3.462032
    12  C    2.909835   2.459651   1.532124   2.531808   3.448996
    13  H    4.518232   3.330138   2.273759   1.087358   2.148755
    14  H    5.638356   4.395053   4.128875   2.673328   2.140658
    15  H    5.209932   4.130161   4.471304   3.332015   2.158175
    16  H    3.196093   2.737512   3.474880   3.386137   2.752389
    17  H    3.909330   3.412935   4.432798   4.067930   2.929238
    18  H    2.579406   2.654837   3.961155   4.233213   3.473001
    19  H    2.761565   2.673789   4.004676   4.246946   3.465471
    20  H    4.023184   3.418214   4.457889   4.069241   2.911797
    21  H    3.409818   2.734525   3.522005   3.391911   2.727175
    22  H    3.400537   2.726447   2.179161   2.725245   3.401535
    23  H    4.049319   3.417210   2.170788   2.857057   4.031299
    24  H    2.813872   2.709909   2.159966   3.452377   4.275242
    25  H    2.640234   2.691511   2.155403   3.455706   4.254520
    26  H    3.937916   3.412552   2.169569   2.872831   4.026807
    27  H    3.196120   2.729517   2.178659   2.733773   3.376009
    28  S    6.527909   5.430928   4.987033   3.737234   3.567551
    29  O    6.158327   5.228625   4.747579   3.848987   3.904114
    30  O    6.700055   5.496747   4.783533   3.400244   3.531547
    31  C    8.225767   7.156864   6.780459   5.509550   5.219720
    32  H    8.342652   7.367923   7.166600   5.992948   5.557672
    33  H    8.786305   7.726488   7.179559   5.966069   5.894547
    34  H    8.671873   7.542774   7.197153   5.815839   5.427665
                    6          7          8          9         10
     6  C    0.000000
     7  S    1.845189   0.000000
     8  C    2.645424   3.660782   0.000000
     9  C    3.306758   3.537431   1.530341   0.000000
    10  C    3.226179   4.475271   1.532736   2.515860   0.000000
    11  C    4.780382   6.188017   3.569768   4.824515   4.162259
    12  C    4.794732   5.497070   3.531128   4.064624   4.821526
    13  H    2.821830   3.940893   3.410666   4.427255   4.425661
    14  H    1.091272   2.392406   3.522430   4.336380   4.041607
    15  H    1.095622   2.346389   2.839648   3.476089   2.890510
    16  H    3.511186   3.391269   2.176868   1.092810   3.474518
    17  H    3.171351   3.106446   2.176036   1.095232   2.740897
    18  H    4.333264   4.607614   2.146677   1.094188   2.761315
    19  H    4.273095   5.371376   2.156497   2.762769   1.095984
    20  H    3.085886   4.142349   2.181396   2.748731   1.095884
    21  H    3.393574   4.954118   2.180308   3.475816   1.094233
    22  H    4.562284   6.178405   3.520824   4.954255   3.731807
    23  H    5.217073   6.577833   4.441695   5.664469   5.124300
    24  H    5.673956   7.015643   4.044503   5.158886   4.544215
    25  H    5.676906   6.394862   3.994601   4.427090   5.148179
    26  H    5.239646   5.941022   4.413371   5.033851   5.676543
    27  H    4.583104   4.925711   3.459892   3.608944   4.916184
    28  S    3.001475   2.139838   4.767244   4.823592   5.901786
    29  O    3.851564   2.990512   4.841937   4.665432   6.208447
    30  O    2.967506   2.950877   4.977580   5.461386   5.971419
    31  C    4.354793   3.046676   6.358520   6.224207   7.377005
    32  H    4.728621   3.107715   6.497574   6.105127   7.525578
    33  H    5.173058   4.020962   7.088258   6.998790   8.195916
    34  H    4.326776   3.174575   6.630183   6.623503   7.466131
                   11         12         13         14         15
    11  C    0.000000
    12  C    2.521449   0.000000
    13  H    2.957215   2.987731   0.000000
    14  H    4.899696   5.116635   2.570371   0.000000
    15  H    5.313637   5.604454   3.758426   1.773946   0.000000
    16  H    4.932023   3.621342   4.237098   4.449056   3.958193
    17  H    5.694404   5.048343   4.946583   4.259270   3.107297
    18  H    5.117298   4.396182   5.266188   5.356809   4.395542
    19  H    4.505644   5.129799   5.276349   5.120768   3.939346
    20  H    5.145584   5.676508   4.943619   3.956254   2.433372
    21  H    3.745098   4.960930   4.237904   3.957105   3.059822
    22  H    1.096446   3.481658   3.172654   4.634869   4.912618
    23  H    1.097405   2.757324   2.889048   5.131517   5.867274
    24  H    1.094597   2.765652   3.984130   5.902331   6.143342
    25  H    2.767589   1.095057   4.007401   6.080199   6.389150
    26  H    2.747738   1.095910   2.929140   5.350172   6.141245
    27  H    3.478583   1.092774   3.206892   5.012309   5.437197
    28  S    6.187312   5.145200   3.430348   2.895546   3.935437
    29  O    6.076101   4.475227   3.664874   3.973829   4.841747
    30  O    5.688931   5.142454   2.736459   2.359229   3.927217
    31  C    7.968536   6.884067   5.145899   4.165695   5.064534
    32  H    8.468962   7.196840   5.795313   4.769228   5.346728
    33  H    8.315401   7.118701   5.459622   4.872972   5.974841
    34  H    8.285183   7.499614   5.418380   3.995006   4.881481
                   16         17         18         19         20
    16  H    0.000000
    17  H    1.775481   0.000000
    18  H    1.779726   1.780660   0.000000
    19  H    3.773964   3.090696   2.555719   0.000000
    20  H    3.749016   2.517542   3.104161   1.774718   0.000000
    21  H    4.325001   3.747712   3.767132   1.777879   1.780941
    22  H    5.265672   5.693301   5.271342   4.140050   4.668456
    23  H    5.634625   6.510847   6.051139   5.557738   6.046214
    24  H    5.289514   6.114474   5.228070   4.631087   5.606605
    25  H    4.057758   5.490945   4.493555   5.232038   6.088965
    26  H    4.531539   5.956959   5.453214   6.076069   6.509301
    27  H    2.921599   4.536093   4.016142   5.251978   5.633320
    28  S    4.285356   4.777696   5.880782   6.810346   5.862784
    29  O    3.850673   4.836794   5.602782   6.964924   6.337541
    30  O    5.081195   5.520935   6.519164   6.964357   6.023478
    31  C    5.684640   5.953941   7.270443   8.294979   7.148593
    32  H    5.524556   5.739732   7.094742   8.366434   7.231067
    33  H    6.361036   6.840993   8.027923   9.109046   8.059564
    34  H    6.240441   6.247788   7.696335   8.443633   7.132585
                   21         22         23         24         25
    21  H    0.000000
    22  H    3.069683   0.000000
    23  H    4.654605   1.781409   0.000000
    24  H    4.197465   1.779842   1.781252   0.000000
    25  H    5.313202   3.773740   3.117469   2.560334   0.000000
    26  H    5.683702   3.755897   2.527874   3.095135   1.783813
    27  H    5.258067   4.328145   3.755018   3.776138   1.780760
    28  S    6.194054   6.412956   6.235883   7.087651   6.180365
    29  O    6.614738   6.536610   6.115185   6.834768   5.434400
    30  O    5.997120   5.811162   5.562691   6.697956   6.232338
    31  C    7.710466   8.151266   7.978572   8.881098   7.903204
    32  H    7.999303   8.683265   8.579945   9.313784   8.149921
    33  H    8.480300   8.584688   8.194519   9.225942   8.145232
    34  H    7.717743   8.331075   8.301510   9.252941   8.541395
                   26         27         28         29         30
    26  H    0.000000
    27  H    1.775524   0.000000
    28  S    5.212398   4.553129   0.000000
    29  O    4.533422   3.691627   1.478851   0.000000
    30  O    5.013388   4.842696   1.483094   2.562714   0.000000
    31  C    6.905032   6.215565   1.795025   2.654908   2.666500
    32  H    7.335257   6.407615   2.374469   2.866360   3.568246
    33  H    6.986034   6.464893   2.335287   2.844022   2.938139
    34  H    7.528423   6.924367   2.375851   3.562716   2.820913
                   31         32         33         34
    31  C    0.000000
    32  H    1.093166   0.000000
    33  H    1.092777   1.798005   0.000000
    34  H    1.089381   1.810343   1.807760   0.000000
 Stoichiometry    C10H18NO3S2(2)
 Framework group  C1[X(C10H18NO3S2)]
 Deg. of freedom    96
 Full point group                 C1      NOp   1
 Largest Abelian subgroup         C1      NOp   1
 Largest concise Abelian subgroup C1      NOp   1
                         Standard orientation:                         
 ---------------------------------------------------------------------
 Center     Atomic      Atomic             Coordinates (Angstroms)
 Number     Number       Type             X           Y           Z
 ---------------------------------------------------------------------
      1          8           0       -3.670564    0.174140    1.037424
      2          7           0       -2.643410    0.050496    0.306698
      3          6           0       -2.172902   -1.262735   -0.177457
      4          6           0       -0.861447   -0.862075   -0.783233
      5          6           0       -0.593554    0.441407   -0.649013
      6          6           0        0.615032    1.120888   -1.191368
      7         16           0        1.950185    1.447213    0.039729
      8          6           0       -1.699707    1.169293    0.088439
      9          6           0       -1.283180    1.747218    1.442859
     10          6           0       -2.378990    2.244945   -0.766444
     11          6           0       -3.153455   -1.820219   -1.212592
     12          6           0       -2.024575   -2.225200    1.005364
     13          1           0       -0.206911   -1.577266   -1.275605
     14          1           0        1.072368    0.534555   -1.990074
     15          1           0        0.391867    2.120645   -1.580048
     16          1           0       -0.751456    1.002966    2.040850
     17          1           0       -0.631082    2.617332    1.311695
     18          1           0       -2.183319    2.058278    1.981597
     19          1           0       -3.291396    2.581663   -0.261154
     20          1           0       -1.723826    3.112978   -0.901508
     21          1           0       -2.651349    1.851858   -1.750644
     22          1           0       -3.247757   -1.142425   -2.069269
     23          1           0       -2.808713   -2.796790   -1.575576
     24          1           0       -4.139691   -1.944288   -0.754238
     25          1           0       -2.994314   -2.335386    1.501967
     26          1           0       -1.689924   -3.207721    0.653683
     27          1           0       -1.295890   -1.850395    1.728340
     28         16           0        2.752311   -0.535291    0.111690
     29          8           0        2.321008   -1.213862    1.352867
     30          8           0        2.498451   -1.172293   -1.203358
     31          6           0        4.509073   -0.193094    0.248810
     32          1           0        4.667875    0.418130    1.141110
     33          1           0        4.985882   -1.170009    0.360401
     34          1           0        4.832634    0.315179   -0.658778
 ---------------------------------------------------------------------
 Rotational constants (GHZ):           0.7715682           0.2775453           0.2436440
 Leave Link  202 at Mon Jun 17 21:25:20 2019, MaxMem=  8053063680 cpu:               0.0 elap:               0.1
 (Enter /data2/g16/g16/l301.exe)
 General basis read from cards:  (6D, 7F)
 Centers:      13     14     15     16     17     18     19     20     21     22
 Centers:      23     24     25     26     27     32     33     34
 6-31G
 S 1 1.00 0.000000000000
     Exponent=  4.0000000000D-01 Coefficients=  1.0000000000D+00
 P 1 1.00 0.000000000000
     Exponent=  7.5000000000D-01 Coefficients=  1.0000000000D+00
 ****
 Centers:       3      4      5      6      8      9     10     11     12     31
 6-31G
 S 1 1.00 0.000000000000
     Exponent=  8.7000000000D+00 Coefficients=  1.0000000000D+00
 P 1 1.00 0.000000000000
     Exponent=  5.0000000000D-02 Coefficients=  1.0000000000D+00
 D 1 1.00
     Exponent=  8.2000000000D-01 Coefficients=  1.0000000000D+00
 ****
 Centers:       2
 6-31G
 S 1 1.00 0.000000000000
     Exponent=  1.3700000000D+01 Coefficients=  1.0000000000D+00
 P 1 1.00 0.000000000000
     Exponent=  5.3000000000D-02 Coefficients=  1.0000000000D+00
 D 1 1.00 0.000000000000
     Exponent=  1.0150000000D+00 Coefficients=  1.0000000000D+00
 ****
 Centers:       1     29     30
 6-31G
 S 1 1.00
     Exponent=  1.6000000000D+01 Coefficients=  1.0000000000D+00
 P 1 1.00 0.000000000000
     Exponent=  6.5000000000D-02 Coefficients=  1.0000000000D+00
 D 1 1.00 0.000000000000
     Exponent=  1.1900000000D+00 Coefficients=  1.0000000000D+00
 D 1 1.00 0.000000000000
     Exponent=  1.8000000000D-01 Coefficients=  1.0000000000D+00
 ****
 Centers:       7     28
 6-31G
 S 1 1.00 0.000000000000
     Exponent=  7.5000000000D+00 Coefficients=  1.0000000000D+00
 P 1 1.00 0.000000000000
     Exponent=  4.1000000000D-02 Coefficients=  1.0000000000D+00
 D 1 1.00 0.000000000000
     Exponent=  4.7900000000D-01 Coefficients=  1.0000000000D+00
 ****
 Ernie: Thresh=  0.10000D-02 Tol=  0.10000D-05 Strict=F.
 There are   438 symmetry adapted cartesian basis functions of A   symmetry.
 There are   438 symmetry adapted basis functions of A   symmetry.
   438 basis functions,   722 primitive gaussians,   438 cartesian basis functions
    71 alpha electrons       70 beta electrons
       nuclear repulsion energy      1521.1414955058 Hartrees.
 IExCor= 1009 DFT=T Ex+Corr=PBE1PBE ExCW=0 ScaHFX=  0.250000
 ScaDFX=  0.750000  0.750000  1.000000  1.000000 ScalE2=  1.000000  1.000000
 IRadAn=      5 IRanWt=     -1 IRanGd=            0 ICorTp=0 IEmpDi=  4
 NAtoms=   34 NActive=   34 NUniq=   34 SFac= 1.00D+00 NAtFMM=   60 NAOKFM=F Big=F
 Integral buffers will be    131072 words long.
 Raffenetti 2 integral format.
 Two-electron integral symmetry is turned on.
 Leave Link  301 at Mon Jun 17 21:25:20 2019, MaxMem=  8053063680 cpu:               0.0 elap:               0.2
 (Enter /data2/g16/g16/l302.exe)
 NPDir=0 NMtPBC=     1 NCelOv=     1 NCel=       1 NClECP=     1 NCelD=      1
         NCelK=      1 NCelE2=     1 NClLst=     1 CellRange=     0.0.
 One-electron integrals computed using PRISM.
 One-electron integral symmetry used in STVInt
 NBasis=   438 RedAO= T EigKep=  6.65D-05  NBF=   438
 NBsUse=   438 1.00D-06 EigRej= -1.00D+00 NBFU=   438
 Precomputing XC quadrature grid using
 IXCGrd= 4 IRadAn=           5 IRanWt=          -1 IRanGd=           0 AccXCQ= 0.00D+00.
 Generated NRdTot=       0 NPtTot=           0 NUsed=           0 NTot=          32
 NSgBfM=   433   433   433   433   433 MxSgAt=    34 MxSgA2=    34.
 Leave Link  302 at Mon Jun 17 21:25:21 2019, MaxMem=  8053063680 cpu:               0.0 elap:               0.5
 (Enter /data2/g16/g16/l303.exe)
 DipDrv:  MaxL=1.
 Leave Link  303 at Mon Jun 17 21:25:21 2019, MaxMem=  8053063680 cpu:               0.0 elap:               0.1
 (Enter /data2/g16/g16/l401.exe)
 ExpMin= 4.10D-02 ExpMax= 2.19D+04 ExpMxC= 3.30D+03 IAcc=3 IRadAn=         5 AccDes= 0.00D+00
 Harris functional with IExCor= 1009 and IRadAn=       5 diagonalized for initial guess.
 HarFok:  IExCor= 1009 AccDes= 0.00D+00 IRadAn=         5 IDoV= 1 UseB2=F ITyADJ=14
 ICtDFT=  3500011 ScaDFX=  1.000000  1.000000  1.000000  1.000000
 FoFCou: FMM=F IPFlag=           0 FMFlag=      100000 FMFlg1=           0
         NFxFlg=           0 DoJE=T BraDBF=F KetDBF=T FulRan=T
         wScrn=  0.000000 ICntrl=       500 IOpCl=  0 I1Cent=   200000004 NGrid=           0
         NMat0=    1 NMatS0=      1 NMatT0=    0 NMatD0=    1 NMtDS0=    0 NMtDT0=    0
 Petite list used in FoFCou.
 Harris En= -1467.69862493803    
 JPrj=0 DoOrth=F DoCkMO=F.
 Initial guess <Sx>= 0.0000 <Sy>= 0.0000 <Sz>= 0.5000 <S**2>= 0.7500 S= 0.5000
 Leave Link  401 at Mon Jun 17 21:25:22 2019, MaxMem=  8053063680 cpu:               0.0 elap:               1.6
 (Enter /data2/g16/g16/l502.exe)
 Integral symmetry usage will be decided dynamically.
 UHF open shell SCF:
 Using DIIS extrapolation, IDIIS=  1040.
 NGot=  8053063680 LenX=  8052670277 LenY=  8052477992
 Requested convergence on RMS density matrix=1.00D-08 within 128 cycles.
 Requested convergence on MAX density matrix=1.00D-06.
 Requested convergence on             energy=1.00D-06.
 No special actions if energy rises.
 Fock matrices will be formed incrementally for  20 cycles.

 Cycle   1  Pass 1  IDiag  1:
 FoFJK:  IHMeth= 1 ICntrl=       0 DoSepK=F KAlg= 0 I1Cent=           0 FoldK=F
 IRaf= 840000000 NMat=       1 IRICut=       1 DoRegI=T DoRafI=F ISym2E= 0 IDoP0=0 IntGTp=1.
 FoFCou: FMM=F IPFlag=           0 FMFlag=      100000 FMFlg1=           0
         NFxFlg=           0 DoJE=F BraDBF=F KetDBF=F FulRan=T
         wScrn=  0.000000 ICntrl=         0 IOpCl=  1 I1Cent=           0 NGrid=           0
         NMat0=    1 NMatS0=      1 NMatT0=    0 NMatD0=    1 NMtDS0=    0 NMtDT0=    0
 Symmetry not used in FoFCou.
 E= -1466.93571998783    
 DIIS: error= 2.54D-02 at cycle   1 NSaved=   1.
 NSaved= 1 IEnMin= 1 EnMin= -1466.93571998783     IErMin= 1 ErrMin= 2.54D-02
 ErrMax= 2.54D-02  0.00D+00 EMaxC= 1.00D-01 BMatC= 2.97D+00 BMatP= 2.97D+00
 IDIUse=3 WtCom= 7.46D-01 WtEn= 2.54D-01
 Coeff-Com:  0.100D+01
 Coeff-En:   0.100D+01
 Coeff:      0.100D+01
 Gap=     0.226 Goal=   None    Shift=    0.000
 Gap=     0.364 Goal=   None    Shift=    0.000
 GapD=    0.226 DampG=1.000 DampE=0.500 DampFc=0.5000 IDamp=-1.
 Damping current iteration by 5.00D-01
 RMSDP=4.75D-03 MaxDP=4.12D-01              OVMax= 3.11D-01

 Cycle   2  Pass 1  IDiag  1:
 RMSU=  2.37D-03    CP:  9.92D-01
 E= -1467.06238701310     Delta-E=       -0.126667025270 Rises=F Damp=T
 DIIS: error= 1.04D-02 at cycle   2 NSaved=   2.
 NSaved= 2 IEnMin= 2 EnMin= -1467.06238701310     IErMin= 2 ErrMin= 1.04D-02
 ErrMax= 1.04D-02  0.00D+00 EMaxC= 1.00D-01 BMatC= 5.22D-01 BMatP= 2.97D+00
 IDIUse=3 WtCom= 8.96D-01 WtEn= 1.04D-01
 Coeff-Com:  0.226D+00 0.774D+00
 Coeff-En:   0.395D+00 0.605D+00
 Coeff:      0.244D+00 0.756D+00
 Gap=     0.128 Goal=   None    Shift=    0.000
 Gap=     0.185 Goal=   None    Shift=    0.000
 RMSDP=1.68D-03 MaxDP=1.19D-01 DE=-1.27D-01 OVMax= 2.88D-01

 Cycle   3  Pass 1  IDiag  1:
 RMSU=  1.39D-03    CP:  9.82D-01  6.10D-01
 E= -1467.46630723057     Delta-E=       -0.403920217468 Rises=F Damp=F
 DIIS: error= 9.67D-03 at cycle   3 NSaved=   3.
 NSaved= 3 IEnMin= 3 EnMin= -1467.46630723057     IErMin= 3 ErrMin= 9.67D-03
 ErrMax= 9.67D-03  0.00D+00 EMaxC= 1.00D-01 BMatC= 3.54D-01 BMatP= 5.22D-01
 IDIUse=3 WtCom= 9.03D-01 WtEn= 9.67D-02
 Coeff-Com:  0.530D-01 0.446D+00 0.501D+00
 Coeff-En:   0.000D+00 0.000D+00 0.100D+01
 Coeff:      0.478D-01 0.403D+00 0.550D+00
 Gap=     0.145 Goal=   None    Shift=    0.000
 Gap=     0.223 Goal=   None    Shift=    0.000
 RMSDP=9.49D-04 MaxDP=6.56D-02 DE=-4.04D-01 OVMax= 1.09D-01

 Cycle   4  Pass 1  IDiag  1:
 RMSU=  6.28D-04    CP:  9.87D-01  7.40D-01  5.41D-01
 E= -1467.53756385342     Delta-E=       -0.071256622853 Rises=F Damp=F
 DIIS: error= 2.98D-03 at cycle   4 NSaved=   4.
 NSaved= 4 IEnMin= 4 EnMin= -1467.53756385342     IErMin= 4 ErrMin= 2.98D-03
 ErrMax= 2.98D-03  0.00D+00 EMaxC= 1.00D-01 BMatC= 4.73D-02 BMatP= 3.54D-01
 IDIUse=3 WtCom= 9.70D-01 WtEn= 2.98D-02
 Coeff-Com: -0.115D-01 0.658D-01 0.286D+00 0.659D+00
 Coeff-En:   0.000D+00 0.000D+00 0.110D+00 0.890D+00
 Coeff:     -0.111D-01 0.639D-01 0.281D+00 0.666D+00
 Gap=     0.144 Goal=   None    Shift=    0.000
 Gap=     0.202 Goal=   None    Shift=    0.000
 RMSDP=3.21D-04 MaxDP=1.86D-02 DE=-7.13D-02 OVMax= 3.36D-02

 Cycle   5  Pass 1  IDiag  1:
 RMSU=  2.01D-04    CP:  9.86D-01  7.23D-01  6.56D-01  7.00D-01
 E= -1467.54745683536     Delta-E=       -0.009892981936 Rises=F Damp=F
 DIIS: error= 7.89D-04 at cycle   5 NSaved=   5.
 NSaved= 5 IEnMin= 5 EnMin= -1467.54745683536     IErMin= 5 ErrMin= 7.89D-04
 ErrMax= 7.89D-04  0.00D+00 EMaxC= 1.00D-01 BMatC= 3.99D-03 BMatP= 4.73D-02
 IDIUse=3 WtCom= 9.92D-01 WtEn= 7.89D-03
 Coeff-Com: -0.841D-02 0.147D-01 0.131D+00 0.370D+00 0.493D+00
 Coeff-En:   0.000D+00 0.000D+00 0.000D+00 0.000D+00 0.100D+01
 Coeff:     -0.835D-02 0.146D-01 0.130D+00 0.367D+00 0.497D+00
 Gap=     0.145 Goal=   None    Shift=    0.000
 Gap=     0.205 Goal=   None    Shift=    0.000
 RMSDP=1.09D-04 MaxDP=5.49D-03 DE=-9.89D-03 OVMax= 1.25D-02

 Cycle   6  Pass 1  IDiag  1:
 RMSU=  6.91D-05    CP:  9.85D-01  7.25D-01  6.52D-01  7.57D-01  6.23D-01
 E= -1467.54832158244     Delta-E=       -0.000864747080 Rises=F Damp=F
 DIIS: error= 2.39D-04 at cycle   6 NSaved=   6.
 NSaved= 6 IEnMin= 6 EnMin= -1467.54832158244     IErMin= 6 ErrMin= 2.39D-04
 ErrMax= 2.39D-04  0.00D+00 EMaxC= 1.00D-01 BMatC= 4.09D-04 BMatP= 3.99D-03
 IDIUse=3 WtCom= 9.98D-01 WtEn= 2.39D-03
 Coeff-Com: -0.280D-02 0.100D-02 0.365D-01 0.116D+00 0.273D+00 0.576D+00
 Coeff-En:   0.000D+00 0.000D+00 0.000D+00 0.000D+00 0.441D-01 0.956D+00
 Coeff:     -0.279D-02 0.998D-03 0.364D-01 0.116D+00 0.272D+00 0.577D+00
 Gap=     0.147 Goal=   None    Shift=    0.000
 Gap=     0.205 Goal=   None    Shift=    0.000
 RMSDP=3.58D-05 MaxDP=2.18D-03 DE=-8.65D-04 OVMax= 5.19D-03

 Cycle   7  Pass 1  IDiag  1:
 RMSU=  2.55D-05    CP:  9.85D-01  7.22D-01  6.58D-01  7.58D-01  6.70D-01
                    CP:  7.00D-01
 E= -1467.54841635227     Delta-E=       -0.000094769835 Rises=F Damp=F
 DIIS: error= 1.23D-04 at cycle   7 NSaved=   7.
 NSaved= 7 IEnMin= 7 EnMin= -1467.54841635227     IErMin= 7 ErrMin= 1.23D-04
 ErrMax= 1.23D-04  0.00D+00 EMaxC= 1.00D-01 BMatC= 6.77D-05 BMatP= 4.09D-04
 IDIUse=3 WtCom= 9.99D-01 WtEn= 1.23D-03
 Coeff-Com: -0.211D-04-0.246D-02-0.268D-02-0.142D-03 0.598D-01 0.329D+00
 Coeff-Com:  0.616D+00
 Coeff-En:   0.000D+00 0.000D+00 0.000D+00 0.000D+00 0.000D+00 0.699D-01
 Coeff-En:   0.930D+00
 Coeff:     -0.211D-04-0.245D-02-0.267D-02-0.141D-03 0.597D-01 0.329D+00
 Coeff:      0.617D+00
 Gap=     0.147 Goal=   None    Shift=    0.000
 Gap=     0.206 Goal=   None    Shift=    0.000
 RMSDP=1.49D-05 MaxDP=9.15D-04 DE=-9.48D-05 OVMax= 1.16D-03

 Cycle   8  Pass 1  IDiag  1:
 RMSU=  1.04D-05    CP:  9.85D-01  7.23D-01  6.58D-01  7.58D-01  7.04D-01
                    CP:  7.97D-01  8.10D-01
 E= -1467.54843272888     Delta-E=       -0.000016376606 Rises=F Damp=F
 DIIS: error= 3.08D-05 at cycle   8 NSaved=   8.
 NSaved= 8 IEnMin= 8 EnMin= -1467.54843272888     IErMin= 8 ErrMin= 3.08D-05
 ErrMax= 3.08D-05  0.00D+00 EMaxC= 1.00D-01 BMatC= 4.85D-06 BMatP= 6.77D-05
 IDIUse=1 WtCom= 1.00D+00 WtEn= 0.00D+00
 Coeff-Com:  0.414D-03-0.111D-02-0.539D-02-0.144D-01-0.160D-01 0.656D-01
 Coeff-Com:  0.216D+00 0.755D+00
 Coeff:      0.414D-03-0.111D-02-0.539D-02-0.144D-01-0.160D-01 0.656D-01
 Coeff:      0.216D+00 0.755D+00
 Gap=     0.147 Goal=   None    Shift=    0.000
 Gap=     0.205 Goal=   None    Shift=    0.000
 RMSDP=5.02D-06 MaxDP=5.39D-04 DE=-1.64D-05 OVMax= 1.25D-03

 Cycle   9  Pass 1  IDiag  1:
 RMSU=  4.13D-06    CP:  9.85D-01  7.23D-01  6.57D-01  7.61D-01  7.03D-01
                    CP:  8.26D-01  8.48D-01  9.24D-01
 E= -1467.54843421897     Delta-E=       -0.000001490089 Rises=F Damp=F
 DIIS: error= 2.82D-05 at cycle   9 NSaved=   9.
 NSaved= 9 IEnMin= 9 EnMin= -1467.54843421897     IErMin= 9 ErrMin= 2.82D-05
 ErrMax= 2.82D-05  0.00D+00 EMaxC= 1.00D-01 BMatC= 3.00D-06 BMatP= 4.85D-06
 IDIUse=1 WtCom= 1.00D+00 WtEn= 0.00D+00
 Coeff-Com:  0.318D-03-0.325D-03-0.295D-02-0.950D-02-0.257D-01-0.274D-01
 Coeff-Com: -0.115D-01 0.487D+00 0.590D+00
 Coeff:      0.318D-03-0.325D-03-0.295D-02-0.950D-02-0.257D-01-0.274D-01
 Coeff:     -0.115D-01 0.487D+00 0.590D+00
 Gap=     0.147 Goal=   None    Shift=    0.000
 Gap=     0.205 Goal=   None    Shift=    0.000
 RMSDP=3.40D-06 MaxDP=2.43D-04 DE=-1.49D-06 OVMax= 2.76D-04

 Cycle  10  Pass 1  IDiag  1:
 RMSU=  2.29D-06    CP:  9.85D-01  7.22D-01  6.57D-01  7.60D-01  7.08D-01
                    CP:  8.44D-01  8.91D-01  1.06D+00  8.66D-01
 E= -1467.54843489891     Delta-E=       -0.000000679942 Rises=F Damp=F
 DIIS: error= 1.36D-05 at cycle  10 NSaved=  10.
 NSaved=10 IEnMin=10 EnMin= -1467.54843489891     IErMin=10 ErrMin= 1.36D-05
 ErrMax= 1.36D-05  0.00D+00 EMaxC= 1.00D-01 BMatC= 5.18D-07 BMatP= 3.00D-06
 IDIUse=1 WtCom= 1.00D+00 WtEn= 0.00D+00
 Coeff-Com:  0.975D-04 0.974D-04-0.144D-03-0.157D-02-0.119D-01-0.315D-01
 Coeff-Com: -0.713D-01 0.110D+00 0.343D+00 0.663D+00
 Coeff:      0.975D-04 0.974D-04-0.144D-03-0.157D-02-0.119D-01-0.315D-01
 Coeff:     -0.713D-01 0.110D+00 0.343D+00 0.663D+00
 Gap=     0.147 Goal=   None    Shift=    0.000
 Gap=     0.206 Goal=   None    Shift=    0.000
 RMSDP=1.59D-06 MaxDP=1.15D-04 DE=-6.80D-07 OVMax= 3.02D-04

 Cycle  11  Pass 1  IDiag  1:
 RMSU=  9.65D-07    CP:  9.85D-01  7.22D-01  6.57D-01  7.60D-01  7.08D-01
                    CP:  8.51D-01  8.97D-01  1.15D+00  9.88D-01  8.49D-01
 E= -1467.54843505385     Delta-E=       -0.000000154940 Rises=F Damp=F
 DIIS: error= 6.53D-06 at cycle  11 NSaved=  11.
 NSaved=11 IEnMin=11 EnMin= -1467.54843505385     IErMin=11 ErrMin= 6.53D-06
 ErrMax= 6.53D-06  0.00D+00 EMaxC= 1.00D-01 BMatC= 1.07D-07 BMatP= 5.18D-07
 IDIUse=1 WtCom= 1.00D+00 WtEn= 0.00D+00
 Coeff-Com:  0.194D-05 0.784D-04 0.450D-03 0.864D-03-0.203D-02-0.103D-01
 Coeff-Com: -0.366D-01-0.214D-01 0.583D-01 0.362D+00 0.649D+00
 Coeff:      0.194D-05 0.784D-04 0.450D-03 0.864D-03-0.203D-02-0.103D-01
 Coeff:     -0.366D-01-0.214D-01 0.583D-01 0.362D+00 0.649D+00
 Gap=     0.147 Goal=   None    Shift=    0.000
 Gap=     0.205 Goal=   None    Shift=    0.000
 RMSDP=6.51D-07 MaxDP=4.46D-05 DE=-1.55D-07 OVMax= 1.13D-04

 Cycle  12  Pass 1  IDiag  1:
 RMSU=  4.40D-07    CP:  9.85D-01  7.22D-01  6.57D-01  7.60D-01  7.08D-01
                    CP:  8.52D-01  8.95D-01  1.16D+00  1.04D+00  9.92D-01
                    CP:  8.08D-01
 E= -1467.54843508019     Delta-E=       -0.000000026339 Rises=F Damp=F
 DIIS: error= 2.54D-06 at cycle  12 NSaved=  12.
 NSaved=12 IEnMin=12 EnMin= -1467.54843508019     IErMin=12 ErrMin= 2.54D-06
 ErrMax= 2.54D-06  0.00D+00 EMaxC= 1.00D-01 BMatC= 2.67D-08 BMatP= 1.07D-07
 IDIUse=1 WtCom= 1.00D+00 WtEn= 0.00D+00
 Coeff-Com: -0.116D-04 0.240D-04 0.307D-03 0.786D-03 0.590D-03-0.129D-02
 Coeff-Com: -0.121D-01-0.333D-01-0.303D-01 0.113D+00 0.408D+00 0.555D+00
 Coeff:     -0.116D-04 0.240D-04 0.307D-03 0.786D-03 0.590D-03-0.129D-02
 Coeff:     -0.121D-01-0.333D-01-0.303D-01 0.113D+00 0.408D+00 0.555D+00
 Gap=     0.147 Goal=   None    Shift=    0.000
 Gap=     0.206 Goal=   None    Shift=    0.000
 RMSDP=3.01D-07 MaxDP=2.14D-05 DE=-2.63D-08 OVMax= 2.60D-05

 Cycle  13  Pass 1  IDiag  1:
 RMSU=  1.90D-07    CP:  9.85D-01  7.22D-01  6.57D-01  7.60D-01  7.08D-01
                    CP:  8.53D-01  8.96D-01  1.17D+00  1.06D+00  1.06D+00
                    CP:  9.22D-01  8.37D-01
 E= -1467.54843508594     Delta-E=       -0.000000005745 Rises=F Damp=F
 DIIS: error= 9.84D-07 at cycle  13 NSaved=  13.
 NSaved=13 IEnMin=13 EnMin= -1467.54843508594     IErMin=13 ErrMin= 9.84D-07
 ErrMax= 9.84D-07  0.00D+00 EMaxC= 1.00D-01 BMatC= 4.35D-09 BMatP= 2.67D-08
 IDIUse=1 WtCom= 1.00D+00 WtEn= 0.00D+00
 Coeff-Com: -0.370D-05-0.104D-04 0.611D-04 0.206D-03 0.897D-03 0.271D-02
 Coeff-Com:  0.370D-02-0.999D-02-0.346D-01-0.317D-01 0.639D-01 0.316D+00
 Coeff-Com:  0.689D+00
 Coeff:     -0.370D-05-0.104D-04 0.611D-04 0.206D-03 0.897D-03 0.271D-02
 Coeff:      0.370D-02-0.999D-02-0.346D-01-0.317D-01 0.639D-01 0.316D+00
 Coeff:      0.689D+00
 Gap=     0.147 Goal=   None    Shift=    0.000
 Gap=     0.206 Goal=   None    Shift=    0.000
 RMSDP=1.26D-07 MaxDP=1.23D-05 DE=-5.75D-09 OVMax= 2.10D-05

 Cycle  14  Pass 1  IDiag  1:
 RMSU=  1.04D-07    CP:  9.85D-01  7.22D-01  6.57D-01  7.60D-01  7.08D-01
                    CP:  8.53D-01  8.96D-01  1.17D+00  1.06D+00  1.07D+00
                    CP:  9.55D-01  8.63D-01  8.41D-01
 E= -1467.54843508716     Delta-E=       -0.000000001222 Rises=F Damp=F
 DIIS: error= 5.36D-07 at cycle  14 NSaved=  14.
 NSaved=14 IEnMin=14 EnMin= -1467.54843508716     IErMin=14 ErrMin= 5.36D-07
 ErrMax= 5.36D-07  0.00D+00 EMaxC= 1.00D-01 BMatC= 8.78D-10 BMatP= 4.35D-09
 IDIUse=1 WtCom= 1.00D+00 WtEn= 0.00D+00
 Coeff-Com:  0.493D-06-0.117D-04-0.279D-04-0.443D-04 0.342D-03 0.165D-02
 Coeff-Com:  0.413D-02 0.156D-02-0.128D-01-0.395D-01-0.547D-01 0.352D-01
 Coeff-Com:  0.370D+00 0.694D+00
 Coeff:      0.493D-06-0.117D-04-0.279D-04-0.443D-04 0.342D-03 0.165D-02
 Coeff:      0.413D-02 0.156D-02-0.128D-01-0.395D-01-0.547D-01 0.352D-01
 Coeff:      0.370D+00 0.694D+00
 Gap=     0.147 Goal=   None    Shift=    0.000
 Gap=     0.206 Goal=   None    Shift=    0.000
 RMSDP=7.32D-08 MaxDP=4.75D-06 DE=-1.22D-09 OVMax= 5.97D-06

 Cycle  15  Pass 1  IDiag  1:
 RMSU=  3.43D-08    CP:  9.85D-01  7.22D-01  6.57D-01  7.60D-01  7.08D-01
                    CP:  8.54D-01  8.95D-01  1.17D+00  1.06D+00  1.08D+00
                    CP:  9.80D-01  9.46D-01  9.80D-01  7.88D-01
 E= -1467.54843508747     Delta-E=       -0.000000000310 Rises=F Damp=F
 DIIS: error= 1.28D-07 at cycle  15 NSaved=  15.
 NSaved=15 IEnMin=15 EnMin= -1467.54843508747     IErMin=15 ErrMin= 1.28D-07
 ErrMax= 1.28D-07  0.00D+00 EMaxC= 1.00D-01 BMatC= 5.82D-11 BMatP= 8.78D-10
 IDIUse=1 WtCom= 1.00D+00 WtEn= 0.00D+00
 Coeff-Com:  0.686D-06-0.207D-05-0.201D-04-0.474D-04-0.905D-05 0.219D-03
 Coeff-Com:  0.877D-03 0.214D-02 0.214D-03-0.818D-02-0.283D-01-0.347D-01
 Coeff-Com:  0.387D-01 0.225D+00 0.804D+00
 Coeff:      0.686D-06-0.207D-05-0.201D-04-0.474D-04-0.905D-05 0.219D-03
 Coeff:      0.877D-03 0.214D-02 0.214D-03-0.818D-02-0.283D-01-0.347D-01
 Coeff:      0.387D-01 0.225D+00 0.804D+00
 Gap=     0.147 Goal=   None    Shift=    0.000
 Gap=     0.206 Goal=   None    Shift=    0.000
 RMSDP=1.99D-08 MaxDP=1.22D-06 DE=-3.10D-10 OVMax= 1.83D-06

 Cycle  16  Pass 1  IDiag  1:
 RMSU=  1.36D-08    CP:  9.85D-01  7.22D-01  6.57D-01  7.60D-01  7.08D-01
                    CP:  8.54D-01  8.95D-01  1.17D+00  1.06D+00  1.08D+00
                    CP:  9.78D-01  9.53D-01  1.02D+00  8.78D-01  9.04D-01
 E= -1467.54843508745     Delta-E=        0.000000000017 Rises=F Damp=F
 DIIS: error= 4.43D-08 at cycle  16 NSaved=  16.
 NSaved=16 IEnMin=15 EnMin= -1467.54843508747     IErMin=16 ErrMin= 4.43D-08
 ErrMax= 4.43D-08  0.00D+00 EMaxC= 1.00D-01 BMatC= 1.09D-11 BMatP= 5.82D-11
 IDIUse=1 WtCom= 1.00D+00 WtEn= 0.00D+00
 Coeff-Com:  0.688D-07 0.107D-05-0.412D-05-0.113D-04-0.529D-04-0.146D-03
 Coeff-Com: -0.248D-03 0.636D-03 0.185D-02 0.259D-02-0.340D-02-0.197D-01
 Coeff-Com: -0.341D-01-0.169D-01 0.322D+00 0.747D+00
 Coeff:      0.688D-07 0.107D-05-0.412D-05-0.113D-04-0.529D-04-0.146D-03
 Coeff:     -0.248D-03 0.636D-03 0.185D-02 0.259D-02-0.340D-02-0.197D-01
 Coeff:     -0.341D-01-0.169D-01 0.322D+00 0.747D+00
 Gap=     0.147 Goal=   None    Shift=    0.000
 Gap=     0.206 Goal=   None    Shift=    0.000
 RMSDP=7.94D-09 MaxDP=4.28D-07 DE= 1.73D-11 OVMax= 7.72D-07

 SCF Done:  E(UPBE1PBE) =  -1467.54843509     A.U. after   16 cycles
            NFock= 16  Conv=0.79D-08     -V/T= 2.0052
 <Sx>= 0.0000 <Sy>= 0.0000 <Sz>= 0.5000 <S**2>= 0.7550 S= 0.5025
 <L.S>=  0.00000000000    
 KE= 1.459893665842D+03 PE=-6.497694030020D+03 EE= 2.049110433585D+03
 Annihilation of the first spin contaminant:
 S**2 before annihilation     0.7550,   after     0.7500
 Leave Link  502 at Mon Jun 17 21:27:59 2019, MaxMem=  8053063680 cpu:               0.0 elap:             156.6
 (Enter /data2/g16/g16/l601.exe)
 Copying SCF densities to generalized density rwf, IOpCl= 1 IROHF=0.

 **********************************************************************

            Population analysis using the SCF Density.

 **********************************************************************

 Orbital symmetries:
 Alpha Orbitals:
       Occupied  (A) (A) (A) (A) (A) (A) (A) (A) (A) (A) (A) (A)
                 (A) (A) (A) (A) (A) (A) (A) (A) (A) (A) (A) (A)
                 (A) (A) (A) (A) (A) (A) (A) (A) (A) (A) (A) (A)
                 (A) (A) (A) (A) (A) (A) (A) (A) (A) (A) (A) (A)
                 (A) (A) (A) (A) (A) (A) (A) (A) (A) (A) (A) (A)
                 (A) (A) (A) (A) (A) (A) (A) (A) (A) (A) (A)
       Virtual   (A) (A) (A) (A) (A) (A) (A) (A) (A) (A) (A) (A)
                 (A) (A) (A) (A) (A) (A) (A) (A) (A) (A) (A) (A)
                 (A) (A) (A) (A) (A) (A) (A) (A) (A) (A) (A) (A)
                 (A) (A) (A) (A) (A) (A) (A) (A) (A) (A) (A) (A)
                 (A) (A) (A) (A) (A) (A) (A) (A) (A) (A) (A) (A)
                 (A) (A) (A) (A) (A) (A) (A) (A) (A) (A) (A) (A)
                 (A) (A) (A) (A) (A) (A) (A) (A) (A) (A) (A) (A)
                 (A) (A) (A) (A) (A) (A) (A) (A) (A) (A) (A) (A)
                 (A) (A) (A) (A) (A) (A) (A) (A) (A) (A) (A) (A)
                 (A) (A) (A) (A) (A) (A) (A) (A) (A) (A) (A) (A)
                 (A) (A) (A) (A) (A) (A) (A) (A) (A) (A) (A) (A)
                 (A) (A) (A) (A) (A) (A) (A) (A) (A) (A) (A) (A)
                 (A) (A) (A) (A) (A) (A) (A) (A) (A) (A) (A) (A)
                 (A) (A) (A) (A) (A) (A) (A) (A) (A) (A) (A) (A)
                 (A) (A) (A) (A) (A) (A) (A) (A) (A) (A) (A) (A)
                 (A) (A) (A) (A) (A) (A) (A) (A) (A) (A) (A) (A)
                 (A) (A) (A) (A) (A) (A) (A) (A) (A) (A) (A) (A)
                 (A) (A) (A) (A) (A) (A) (A) (A) (A) (A) (A) (A)
                 (A) (A) (A) (A) (A) (A) (A) (A) (A) (A) (A) (A)
                 (A) (A) (A) (A) (A) (A) (A) (A) (A) (A) (A) (A)
                 (A) (A) (A) (A) (A) (A) (A) (A) (A) (A) (A) (A)
                 (A) (A) (A) (A) (A) (A) (A) (A) (A) (A) (A) (A)
                 (A) (A) (A) (A) (A) (A) (A) (A) (A) (A) (A) (A)
                 (A) (A) (A) (A) (A) (A) (A) (A) (A) (A) (A) (A)
                 (A) (A) (A) (A) (A) (A) (A) (A) (A) (A) (A) (A)
                 (A) (A) (A) (A) (A) (A) (A) (A) (A) (A) (A) (A)
                 (A) (A) (A) (A) (A) (A) (A) (A) (A) (A) (A) (A)
                 (A) (A) (A) (A) (A) (A) (A) (A) (A) (A) (A) (A)
                 (A) (A) (A) (A) (A) (A) (A) (A) (A) (A) (A) (A)
                 (A) (A) (A) (A) (A) (A) (A) (A) (A) (A) (A) (A)
                 (A) (A) (A) (A) (A) (A) (A)
 Beta  Orbitals:
       Occupied  (A) (A) (A) (A) (A) (A) (A) (A) (A) (A) (A) (A)
                 (A) (A) (A) (A) (A) (A) (A) (A) (A) (A) (A) (A)
                 (A) (A) (A) (A) (A) (A) (A) (A) (A) (A) (A) (A)
                 (A) (A) (A) (A) (A) (A) (A) (A) (A) (A) (A) (A)
                 (A) (A) (A) (A) (A) (A) (A) (A) (A) (A) (A) (A)
                 (A) (A) (A) (A) (A) (A) (A) (A) (A) (A)
       Virtual   (A) (A) (A) (A) (A) (A) (A) (A) (A) (A) (A) (A)
                 (A) (A) (A) (A) (A) (A) (A) (A) (A) (A) (A) (A)
                 (A) (A) (A) (A) (A) (A) (A) (A) (A) (A) (A) (A)
                 (A) (A) (A) (A) (A) (A) (A) (A) (A) (A) (A) (A)
                 (A) (A) (A) (A) (A) (A) (A) (A) (A) (A) (A) (A)
                 (A) (A) (A) (A) (A) (A) (A) (A) (A) (A) (A) (A)
                 (A) (A) (A) (A) (A) (A) (A) (A) (A) (A) (A) (A)
                 (A) (A) (A) (A) (A) (A) (A) (A) (A) (A) (A) (A)
                 (A) (A) (A) (A) (A) (A) (A) (A) (A) (A) (A) (A)
                 (A) (A) (A) (A) (A) (A) (A) (A) (A) (A) (A) (A)
                 (A) (A) (A) (A) (A) (A) (A) (A) (A) (A) (A) (A)
                 (A) (A) (A) (A) (A) (A) (A) (A) (A) (A) (A) (A)
                 (A) (A) (A) (A) (A) (A) (A) (A) (A) (A) (A) (A)
                 (A) (A) (A) (A) (A) (A) (A) (A) (A) (A) (A) (A)
                 (A) (A) (A) (A) (A) (A) (A) (A) (A) (A) (A) (A)
                 (A) (A) (A) (A) (A) (A) (A) (A) (A) (A) (A) (A)
                 (A) (A) (A) (A) (A) (A) (A) (A) (A) (A) (A) (A)
                 (A) (A) (A) (A) (A) (A) (A) (A) (A) (A) (A) (A)
                 (A) (A) (A) (A) (A) (A) (A) (A) (A) (A) (A) (A)
                 (A) (A) (A) (A) (A) (A) (A) (A) (A) (A) (A) (A)
                 (A) (A) (A) (A) (A) (A) (A) (A) (A) (A) (A) (A)
                 (A) (A) (A) (A) (A) (A) (A) (A) (A) (A) (A) (A)
                 (A) (A) (A) (A) (A) (A) (A) (A) (A) (A) (A) (A)
                 (A) (A) (A) (A) (A) (A) (A) (A) (A) (A) (A) (A)
                 (A) (A) (A) (A) (A) (A) (A) (A) (A) (A) (A) (A)
                 (A) (A) (A) (A) (A) (A) (A) (A) (A) (A) (A) (A)
                 (A) (A) (A) (A) (A) (A) (A) (A) (A) (A) (A) (A)
                 (A) (A) (A) (A) (A) (A) (A) (A) (A) (A) (A) (A)
                 (A) (A) (A) (A) (A) (A) (A) (A) (A) (A) (A) (A)
                 (A) (A) (A) (A) (A) (A) (A) (A) (A) (A) (A) (A)
                 (A) (A) (A) (A) (A) (A) (A) (A)
 The electronic state is 2-A.
 Alpha  occ. eigenvalues --  -89.28801 -89.08190 -19.24749 -19.24221 -19.22633
 Alpha  occ. eigenvalues --  -14.48513 -10.29734 -10.29700 -10.29121 -10.28715
 Alpha  occ. eigenvalues --  -10.26126 -10.24855 -10.23324 -10.22851 -10.22564
 Alpha  occ. eigenvalues --  -10.22313  -8.22120  -8.04433  -6.15843  -6.15799
 Alpha  occ. eigenvalues --   -6.15685  -5.98274  -5.97898  -5.97174  -1.14720
 Alpha  occ. eigenvalues --   -1.13500  -1.04481  -0.93290  -0.85924  -0.84030
 Alpha  occ. eigenvalues --   -0.82243  -0.77237  -0.74913  -0.72102  -0.71234
 Alpha  occ. eigenvalues --   -0.70587  -0.64472  -0.62456  -0.58971  -0.56422
 Alpha  occ. eigenvalues --   -0.53158  -0.51829  -0.51305  -0.50749  -0.50198
 Alpha  occ. eigenvalues --   -0.48514  -0.47406  -0.46360  -0.46177  -0.45129
 Alpha  occ. eigenvalues --   -0.44651  -0.43956  -0.42780  -0.42437  -0.41664
 Alpha  occ. eigenvalues --   -0.40505  -0.40092  -0.39049  -0.38869  -0.36500
 Alpha  occ. eigenvalues --   -0.36362  -0.36187  -0.35748  -0.35656  -0.34538
 Alpha  occ. eigenvalues --   -0.33588  -0.31776  -0.28316  -0.27228  -0.26894
 Alpha  occ. eigenvalues --   -0.20171
 Alpha virt. eigenvalues --   -0.05450  -0.02449   0.00471   0.01073   0.02634
 Alpha virt. eigenvalues --    0.03409   0.03690   0.04586   0.04818   0.04990
 Alpha virt. eigenvalues --    0.05446   0.05803   0.06160   0.06289   0.06851
 Alpha virt. eigenvalues --    0.07844   0.08239   0.08375   0.09039   0.09322
 Alpha virt. eigenvalues --    0.09402   0.09648   0.10363   0.10760   0.11014
 Alpha virt. eigenvalues --    0.11377   0.11824   0.12675   0.13021   0.13695
 Alpha virt. eigenvalues --    0.14032   0.14407   0.14708   0.15017   0.15554
 Alpha virt. eigenvalues --    0.15980   0.16654   0.16764   0.16938   0.17750
 Alpha virt. eigenvalues --    0.18378   0.18717   0.19259   0.19435   0.19648
 Alpha virt. eigenvalues --    0.20004   0.20858   0.21243   0.22044   0.22538
 Alpha virt. eigenvalues --    0.23189   0.23228   0.23978   0.24657   0.25436
 Alpha virt. eigenvalues --    0.26127   0.26328   0.26743   0.27132   0.27726
 Alpha virt. eigenvalues --    0.27962   0.28395   0.29090   0.29224   0.29807
 Alpha virt. eigenvalues --    0.30405   0.30611   0.31476   0.31724   0.31784
 Alpha virt. eigenvalues --    0.32243   0.32961   0.33512   0.34559   0.34986
 Alpha virt. eigenvalues --    0.35585   0.36809   0.37729   0.38142   0.40456
 Alpha virt. eigenvalues --    0.41738   0.41941   0.42228   0.43509   0.44220
 Alpha virt. eigenvalues --    0.46110   0.47098   0.47571   0.48104   0.50219
 Alpha virt. eigenvalues --    0.50703   0.50917   0.51813   0.51944   0.52875
 Alpha virt. eigenvalues --    0.53657   0.54028   0.54589   0.55465   0.56159
 Alpha virt. eigenvalues --    0.57110   0.58109   0.58211   0.59852   0.60541
 Alpha virt. eigenvalues --    0.60958   0.61906   0.62682   0.63148   0.63772
 Alpha virt. eigenvalues --    0.64219   0.64881   0.65341   0.65919   0.66663
 Alpha virt. eigenvalues --    0.67802   0.68116   0.68714   0.70059   0.71036
 Alpha virt. eigenvalues --    0.72090   0.72842   0.73164   0.73942   0.74219
 Alpha virt. eigenvalues --    0.74765   0.75883   0.76464   0.77217   0.78374
 Alpha virt. eigenvalues --    0.79034   0.79790   0.80799   0.81879   0.82171
 Alpha virt. eigenvalues --    0.82577   0.83213   0.83816   0.84876   0.85664
 Alpha virt. eigenvalues --    0.86038   0.87074   0.87948   0.88381   0.88695
 Alpha virt. eigenvalues --    0.89214   0.89831   0.90421   0.90971   0.91198
 Alpha virt. eigenvalues --    0.91547   0.92964   0.94194   0.94831   0.95435
 Alpha virt. eigenvalues --    0.96386   0.97391   0.97931   0.98084   0.99614
 Alpha virt. eigenvalues --    0.99746   1.01897   1.02221   1.03463   1.04542
 Alpha virt. eigenvalues --    1.04619   1.07749   1.08616   1.09151   1.11949
 Alpha virt. eigenvalues --    1.12501   1.14639   1.15015   1.15823   1.16767
 Alpha virt. eigenvalues --    1.18679   1.20237   1.21696   1.22167   1.23584
 Alpha virt. eigenvalues --    1.25486   1.29035   1.30190   1.31645   1.31719
 Alpha virt. eigenvalues --    1.36502   1.37812   1.39591   1.40129   1.41440
 Alpha virt. eigenvalues --    1.44334   1.45434   1.45900   1.48023   1.48789
 Alpha virt. eigenvalues --    1.49138   1.50409   1.51549   1.53016   1.55980
 Alpha virt. eigenvalues --    1.57588   1.59502   1.62515   1.63121   1.63280
 Alpha virt. eigenvalues --    1.65544   1.65886   1.67021   1.68135   1.68448
 Alpha virt. eigenvalues --    1.69425   1.71025   1.72220   1.73204   1.74991
 Alpha virt. eigenvalues --    1.75648   1.76391   1.77658   1.78746   1.79218
 Alpha virt. eigenvalues --    1.79743   1.80573   1.80975   1.81812   1.82571
 Alpha virt. eigenvalues --    1.83875   1.84390   1.85114   1.85912   1.87133
 Alpha virt. eigenvalues --    1.88088   1.89692   1.90963   1.92994   1.94179
 Alpha virt. eigenvalues --    1.95329   1.95874   1.97929   1.98234   1.98840
 Alpha virt. eigenvalues --    1.99471   2.02295   2.03121   2.04314   2.05628
 Alpha virt. eigenvalues --    2.06418   2.07245   2.10411   2.12429   2.13446
 Alpha virt. eigenvalues --    2.14864   2.16281   2.16830   2.23737   2.26030
 Alpha virt. eigenvalues --    2.27910   2.28907   2.31776   2.32936   2.34303
 Alpha virt. eigenvalues --    2.36775   2.38756   2.39413   2.40040   2.41063
 Alpha virt. eigenvalues --    2.42746   2.44890   2.47358   2.48708   2.49727
 Alpha virt. eigenvalues --    2.53718   2.54611   2.54840   2.58095   2.58924
 Alpha virt. eigenvalues --    2.60561   2.63941   2.65287   2.66052   2.67418
 Alpha virt. eigenvalues --    2.70687   2.75232   2.75714   2.77513   2.80697
 Alpha virt. eigenvalues --    2.82462   2.82697   2.83222   2.83339   2.84204
 Alpha virt. eigenvalues --    2.84419   2.85339   2.86566   2.86997   2.88063
 Alpha virt. eigenvalues --    2.88440   2.89621   2.90946   2.93191   2.93566
 Alpha virt. eigenvalues --    2.94598   2.95560   2.96844   2.97853   2.98397
 Alpha virt. eigenvalues --    2.99259   3.02590   3.03465   3.03913   3.06721
 Alpha virt. eigenvalues --    3.08087   3.15664   3.18201   3.19631   3.20475
 Alpha virt. eigenvalues --    3.26176   3.28220   3.29730   3.31227   3.31467
 Alpha virt. eigenvalues --    3.34431   3.35839   3.37379   3.38364   3.41483
 Alpha virt. eigenvalues --    3.41959   3.42958   3.45181   3.48183   3.49862
 Alpha virt. eigenvalues --    3.53772   3.56372   3.59668   3.63627   3.64692
 Alpha virt. eigenvalues --    3.76420   3.94354   4.47178   4.57445   4.62174
 Alpha virt. eigenvalues --    4.64294   4.72438   4.73886   4.74742   4.86534
 Alpha virt. eigenvalues --    4.91292   5.03088   5.44557   5.81784   5.84479
 Alpha virt. eigenvalues --    6.08023  22.21667  22.63380  58.49221  58.49255
 Alpha virt. eigenvalues --   58.50384  58.50654  58.50887  58.55584  58.56050
 Alpha virt. eigenvalues --   58.56357  58.56635  58.56828  95.61759 106.32255
 Alpha virt. eigenvalues --  106.33254 106.39112
  Beta  occ. eigenvalues --  -89.28801 -89.08190 -19.24749 -19.24221 -19.21200
  Beta  occ. eigenvalues --  -14.47325 -10.29735 -10.29700 -10.29185 -10.28779
  Beta  occ. eigenvalues --  -10.26124 -10.24853 -10.23272 -10.22800 -10.22517
  Beta  occ. eigenvalues --  -10.22265  -8.22120  -8.04433  -6.15843  -6.15799
  Beta  occ. eigenvalues --   -6.15685  -5.98274  -5.97898  -5.97174  -1.14720
  Beta  occ. eigenvalues --   -1.10868  -1.04481  -0.92336  -0.85732  -0.83926
  Beta  occ. eigenvalues --   -0.82111  -0.77040  -0.73845  -0.71851  -0.71104
  Beta  occ. eigenvalues --   -0.70133  -0.64419  -0.62328  -0.58594  -0.55914
  Beta  occ. eigenvalues --   -0.53067  -0.51823  -0.51017  -0.50414  -0.48342
  Beta  occ. eigenvalues --   -0.47522  -0.47177  -0.46343  -0.46112  -0.44978
  Beta  occ. eigenvalues --   -0.44262  -0.43801  -0.42504  -0.41648  -0.41194
  Beta  occ. eigenvalues --   -0.40203  -0.40033  -0.38718  -0.37665  -0.36321
  Beta  occ. eigenvalues --   -0.36129  -0.35721  -0.35696  -0.34510  -0.33584
  Beta  occ. eigenvalues --   -0.32705  -0.31771  -0.28236  -0.26719  -0.26002
  Beta virt. eigenvalues --   -0.05451  -0.03830  -0.02412   0.00484   0.01078
  Beta virt. eigenvalues --    0.02655   0.03437   0.03728   0.04627   0.04909
  Beta virt. eigenvalues --    0.05021   0.05471   0.05845   0.06188   0.06314
  Beta virt. eigenvalues --    0.06918   0.07862   0.08297   0.08448   0.09065
  Beta virt. eigenvalues --    0.09362   0.09525   0.09708   0.10407   0.10808
  Beta virt. eigenvalues --    0.11035   0.11436   0.11921   0.12790   0.13108
  Beta virt. eigenvalues --    0.13753   0.14091   0.14447   0.14796   0.15075
  Beta virt. eigenvalues --    0.15886   0.16071   0.16701   0.16990   0.17207
  Beta virt. eigenvalues --    0.17887   0.18426   0.18818   0.19381   0.19605
  Beta virt. eigenvalues --    0.19782   0.20212   0.21006   0.21360   0.22140
  Beta virt. eigenvalues --    0.22709   0.23251   0.23310   0.24131   0.24963
  Beta virt. eigenvalues --    0.25583   0.26235   0.26416   0.26852   0.27233
  Beta virt. eigenvalues --    0.27773   0.28090   0.28539   0.29138   0.29377
  Beta virt. eigenvalues --    0.30188   0.30586   0.30982   0.31604   0.31862
  Beta virt. eigenvalues --    0.32090   0.32540   0.33049   0.33594   0.34629
  Beta virt. eigenvalues --    0.35099   0.35787   0.36845   0.37806   0.38230
  Beta virt. eigenvalues --    0.40495   0.41811   0.41993   0.42665   0.43544
  Beta virt. eigenvalues --    0.44386   0.46179   0.47229   0.47603   0.48144
  Beta virt. eigenvalues --    0.50325   0.50849   0.51022   0.51921   0.52030
  Beta virt. eigenvalues --    0.52917   0.53769   0.54135   0.54750   0.55529
  Beta virt. eigenvalues --    0.56238   0.57202   0.58193   0.58381   0.59952
  Beta virt. eigenvalues --    0.60657   0.61090   0.61937   0.62719   0.63321
  Beta virt. eigenvalues --    0.63924   0.64294   0.64941   0.65507   0.66075
  Beta virt. eigenvalues --    0.66735   0.67855   0.68425   0.68852   0.70300
  Beta virt. eigenvalues --    0.71288   0.72149   0.72952   0.73222   0.74023
  Beta virt. eigenvalues --    0.74448   0.74799   0.76006   0.76519   0.77293
  Beta virt. eigenvalues --    0.78578   0.79124   0.79964   0.80919   0.82073
  Beta virt. eigenvalues --    0.82249   0.82675   0.83281   0.83882   0.84941
  Beta virt. eigenvalues --    0.85741   0.86124   0.87183   0.87978   0.88445
  Beta virt. eigenvalues --    0.88733   0.89250   0.89893   0.90535   0.91054
  Beta virt. eigenvalues --    0.91266   0.91737   0.93118   0.94401   0.94928
  Beta virt. eigenvalues --    0.95499   0.96542   0.97537   0.98038   0.99350
  Beta virt. eigenvalues --    0.99670   0.99917   1.02116   1.02287   1.03587
  Beta virt. eigenvalues --    1.04624   1.04809   1.07803   1.08659   1.09333
  Beta virt. eigenvalues --    1.12337   1.12669   1.14663   1.15074   1.15991
  Beta virt. eigenvalues --    1.17041   1.18992   1.20587   1.22156   1.23291
  Beta virt. eigenvalues --    1.23917   1.25957   1.29512   1.30752   1.31806
  Beta virt. eigenvalues --    1.32369   1.36879   1.38140   1.39651   1.40207
  Beta virt. eigenvalues --    1.41503   1.44367   1.45629   1.46160   1.48206
  Beta virt. eigenvalues --    1.48903   1.49228   1.50462   1.51652   1.53047
  Beta virt. eigenvalues --    1.56159   1.57673   1.59615   1.62547   1.63142
  Beta virt. eigenvalues --    1.63304   1.65885   1.66082   1.67603   1.68312
  Beta virt. eigenvalues --    1.68464   1.69704   1.71087   1.72268   1.73322
  Beta virt. eigenvalues --    1.75078   1.75713   1.76517   1.77693   1.78802
  Beta virt. eigenvalues --    1.79263   1.79819   1.80658   1.81020   1.81875
  Beta virt. eigenvalues --    1.82717   1.84012   1.84463   1.85209   1.86060
  Beta virt. eigenvalues --    1.87272   1.88198   1.89802   1.91206   1.93151
  Beta virt. eigenvalues --    1.94281   1.95340   1.95899   1.98132   1.98403
  Beta virt. eigenvalues --    1.99113   1.99732   2.02609   2.03412   2.04509
  Beta virt. eigenvalues --    2.05993   2.06851   2.07663   2.10766   2.12858
  Beta virt. eigenvalues --    2.13580   2.15164   2.16327   2.17243   2.24562
  Beta virt. eigenvalues --    2.26084   2.28047   2.30059   2.31908   2.33035
  Beta virt. eigenvalues --    2.34429   2.36866   2.38761   2.39415   2.40221
  Beta virt. eigenvalues --    2.41383   2.43007   2.44995   2.47527   2.49223
  Beta virt. eigenvalues --    2.49884   2.53913   2.54921   2.55862   2.58609
  Beta virt. eigenvalues --    2.59030   2.60619   2.64032   2.65393   2.66122
  Beta virt. eigenvalues --    2.68255   2.70853   2.75362   2.76105   2.77722
  Beta virt. eigenvalues --    2.80920   2.82476   2.82727   2.83263   2.84213
  Beta virt. eigenvalues --    2.84332   2.85387   2.85923   2.86971   2.87304
  Beta virt. eigenvalues --    2.88296   2.89682   2.89777   2.91209   2.93237
  Beta virt. eigenvalues --    2.94650   2.95427   2.95836   2.96966   2.98084
  Beta virt. eigenvalues --    2.98453   2.99699   3.02794   3.03965   3.04385
  Beta virt. eigenvalues --    3.06815   3.08199   3.16039   3.19160   3.19841
  Beta virt. eigenvalues --    3.23859   3.26179   3.28222   3.30227   3.31273
  Beta virt. eigenvalues --    3.31544   3.34483   3.35849   3.37423   3.38382
  Beta virt. eigenvalues --    3.41573   3.42083   3.43014   3.45222   3.48304
  Beta virt. eigenvalues --    3.49984   3.53947   3.56408   3.59712   3.63737
  Beta virt. eigenvalues --    3.64710   3.76439   3.96059   4.47250   4.57506
  Beta virt. eigenvalues --    4.62174   4.64413   4.72513   4.73988   4.74848
  Beta virt. eigenvalues --    4.86661   4.91332   5.03092   5.46439   5.81794
  Beta virt. eigenvalues --    5.84480   6.10532  22.21667  22.63381  58.49220
  Beta virt. eigenvalues --   58.49254  58.50366  58.50617  58.50834  58.55631
  Beta virt. eigenvalues --   58.56097  58.56399  58.56677  58.56830  95.62686
  Beta virt. eigenvalues --  106.32256 106.33254 106.40254
          Condensed to atoms (all electrons):
               1          2          3          4          5          6
     1  O    8.668121  -0.015754  -0.085884  -0.001615   0.036863  -0.003841
     2  N   -0.015754   7.346115   0.090565  -0.065065  -0.020599   0.015885
     3  C   -0.085884   0.090565   5.432711   0.244389  -0.097115   0.018181
     4  C   -0.001615  -0.065065   0.244389   5.179605   0.606649  -0.034677
     5  C    0.036863  -0.020599  -0.097115   0.606649   5.388182   0.193982
     6  C   -0.003841   0.015885   0.018181  -0.034677   0.193982   5.228498
     7  S   -0.000763   0.004781   0.000346  -0.002422  -0.127652   0.259173
     8  C   -0.071881   0.068383  -0.140604  -0.052849   0.218963  -0.074475
     9  C   -0.016364  -0.089991   0.006650  -0.003250  -0.063419   0.008353
    10  C   -0.005906  -0.084767   0.017617  -0.009590  -0.080812   0.005503
    11  C   -0.001946  -0.103073   0.312997  -0.052328  -0.011342  -0.002296
    12  C   -0.008032  -0.092409   0.312517  -0.074224  -0.000028  -0.001706
    13  H   -0.000750   0.004599  -0.036223   0.406216  -0.050282  -0.001506
    14  H    0.000033  -0.001458   0.002435   0.022408  -0.081399   0.420112
    15  H    0.000144  -0.003579  -0.000042   0.005674  -0.063666   0.407707
    16  H   -0.001590   0.014002  -0.004448   0.004371   0.002979  -0.000886
    17  H   -0.000437   0.006900  -0.000345   0.000995  -0.006883   0.002172
    18  H    0.007518  -0.025403   0.001837  -0.000871   0.008265  -0.000958
    19  H    0.008047  -0.024505  -0.001384  -0.001330   0.018446  -0.001308
    20  H   -0.000673   0.004624  -0.000776   0.001487  -0.002549   0.001884
    21  H   -0.000107   0.006446   0.002008   0.000304  -0.005226   0.003925
    22  H    0.000037   0.004299  -0.053128  -0.006991   0.008310  -0.000694
    23  H   -0.000876   0.007093  -0.046723   0.000960   0.001745  -0.000048
    24  H    0.007383  -0.023969  -0.033969   0.015661  -0.002676   0.000068
    25  H    0.007559  -0.030735  -0.025108   0.015197  -0.001160   0.000016
    26  H   -0.000250   0.009439  -0.047619  -0.002887   0.000075  -0.000029
    27  H   -0.000589   0.010806  -0.061511  -0.003383   0.005216  -0.000504
    28  S   -0.000234   0.000374  -0.001384  -0.031375  -0.004071  -0.004523
    29  O    0.000303   0.003057  -0.002326   0.031745   0.008536   0.004691
    30  O    0.000173  -0.001932  -0.004717   0.024899   0.016116  -0.024492
    31  C    0.000013  -0.000025  -0.000586   0.003455   0.003801  -0.000341
    32  H   -0.000000  -0.000005   0.000031  -0.000145  -0.000381   0.000141
    33  H   -0.000000   0.000003   0.000021   0.000013   0.000044   0.000204
    34  H   -0.000000   0.000001  -0.000026  -0.000534   0.000167  -0.000421
               7          8          9         10         11         12
     1  O   -0.000763  -0.071881  -0.016364  -0.005906  -0.001946  -0.008032
     2  N    0.004781   0.068383  -0.089991  -0.084767  -0.103073  -0.092409
     3  C    0.000346  -0.140604   0.006650   0.017617   0.312997   0.312517
     4  C   -0.002422  -0.052849  -0.003250  -0.009590  -0.052328  -0.074224
     5  C   -0.127652   0.218963  -0.063419  -0.080812  -0.011342  -0.000028
     6  C    0.259173  -0.074475   0.008353   0.005503  -0.002296  -0.001706
     7  S   15.865514  -0.004115   0.003816  -0.000488  -0.000227   0.000889
     8  C   -0.004115   5.423143   0.321927   0.325602   0.018386   0.017937
     9  C    0.003816   0.321927   5.008447  -0.084747  -0.005431   0.004794
    10  C   -0.000488   0.325602  -0.084747   5.034457   0.005005  -0.005927
    11  C   -0.000227   0.018386  -0.005431   0.005005   5.034404  -0.081215
    12  C    0.000889   0.017937   0.004794  -0.005927  -0.081215   5.019712
    13  H    0.000007   0.012174  -0.000897  -0.001508  -0.000565   0.002652
    14  H   -0.042052   0.002699   0.000050  -0.001855  -0.000125  -0.000034
    15  H   -0.041324   0.007784  -0.000896   0.005733   0.000312  -0.000068
    16  H    0.000966  -0.064334   0.412648   0.009174   0.000178  -0.001518
    17  H    0.001042  -0.034574   0.399948  -0.004067   0.000140  -0.000132
    18  H    0.000007  -0.032497   0.412765  -0.003899  -0.000090   0.000054
    19  H    0.000015  -0.040631  -0.002907   0.415137  -0.000334   0.000121
    20  H   -0.000127  -0.038761  -0.003886   0.401246  -0.000073   0.000158
    21  H   -0.001106  -0.056148   0.008337   0.410057  -0.000845  -0.000101
    22  H    0.000013  -0.001254   0.000066  -0.001023   0.410371   0.008310
    23  H    0.000006  -0.001240   0.000173  -0.000078   0.405544  -0.002905
    24  H   -0.000012   0.000480   0.000005  -0.000317   0.411455  -0.003969
    25  H   -0.000033  -0.001988   0.000214  -0.000061  -0.004429   0.410329
    26  H   -0.000004  -0.000712  -0.000136   0.000159  -0.002165   0.406658
    27  H   -0.000050  -0.000282  -0.001627   0.000100   0.009099   0.413009
    28  S    0.310820   0.001887  -0.003205  -0.000204  -0.000935   0.002036
    29  O   -0.075184  -0.006370  -0.000966   0.000071   0.000315  -0.006034
    30  O   -0.083677  -0.002429   0.000695  -0.000064   0.001150   0.000404
    31  C   -0.052043  -0.000893   0.000181   0.000045   0.000060  -0.000185
    32  H   -0.000593   0.000120  -0.000062  -0.000002  -0.000001  -0.000006
    33  H    0.001483  -0.000037  -0.000002   0.000001  -0.000000  -0.000005
    34  H    0.002669   0.000117   0.000004  -0.000001  -0.000000   0.000008
              13         14         15         16         17         18
     1  O   -0.000750   0.000033   0.000144  -0.001590  -0.000437   0.007518
     2  N    0.004599  -0.001458  -0.003579   0.014002   0.006900  -0.025403
     3  C   -0.036223   0.002435  -0.000042  -0.004448  -0.000345   0.001837
     4  C    0.406216   0.022408   0.005674   0.004371   0.000995  -0.000871
     5  C   -0.050282  -0.081399  -0.063666   0.002979  -0.006883   0.008265
     6  C   -0.001506   0.420112   0.407707  -0.000886   0.002172  -0.000958
     7  S    0.000007  -0.042052  -0.041324   0.000966   0.001042   0.000007
     8  C    0.012174   0.002699   0.007784  -0.064334  -0.034574  -0.032497
     9  C   -0.000897   0.000050  -0.000896   0.412648   0.399948   0.412765
    10  C   -0.001508  -0.001855   0.005733   0.009174  -0.004067  -0.003899
    11  C   -0.000565  -0.000125   0.000312   0.000178   0.000140  -0.000090
    12  C    0.002652  -0.000034  -0.000068  -0.001518  -0.000132   0.000054
    13  H    0.508478   0.002126  -0.000026  -0.000042  -0.000001   0.000004
    14  H    0.002126   0.489259  -0.014209  -0.000034  -0.000017   0.000001
    15  H   -0.000026  -0.014209   0.530598   0.000088  -0.000045   0.000010
    16  H   -0.000042  -0.000034   0.000088   0.537183  -0.019187  -0.015030
    17  H   -0.000001  -0.000017  -0.000045  -0.019187   0.566269  -0.021034
    18  H    0.000004   0.000001   0.000010  -0.015030  -0.021034   0.521743
    19  H    0.000005   0.000003  -0.000033  -0.000007  -0.000252   0.001939
    20  H    0.000002   0.000020  -0.000038   0.000099   0.001235  -0.000160
    21  H   -0.000015  -0.000013  -0.000255  -0.000140   0.000072   0.000030
    22  H    0.000065   0.000004   0.000002  -0.000001   0.000000   0.000000
    23  H    0.000527   0.000001   0.000000  -0.000000  -0.000000   0.000000
    24  H    0.000018   0.000000  -0.000000  -0.000001   0.000000  -0.000002
    25  H   -0.000043  -0.000000   0.000000  -0.000005  -0.000000  -0.000009
    26  H    0.000173  -0.000001   0.000000   0.000008  -0.000000  -0.000000
    27  H   -0.000110  -0.000002   0.000000   0.000313   0.000010  -0.000013
    28  S    0.003538  -0.014345   0.002866  -0.000849  -0.000990   0.000383
    29  O   -0.000351   0.001046  -0.000796  -0.000043   0.000186  -0.000012
    30  O   -0.001052   0.011549  -0.001256   0.000062   0.000019  -0.000010
    31  C   -0.000117   0.000456  -0.000045   0.000032   0.000049  -0.000003
    32  H    0.000000   0.000005  -0.000001  -0.000000  -0.000000   0.000000
    33  H    0.000000  -0.000011   0.000000   0.000000   0.000000  -0.000000
    34  H    0.000001   0.000024  -0.000000   0.000000  -0.000000   0.000000
              19         20         21         22         23         24
     1  O    0.008047  -0.000673  -0.000107   0.000037  -0.000876   0.007383
     2  N   -0.024505   0.004624   0.006446   0.004299   0.007093  -0.023969
     3  C   -0.001384  -0.000776   0.002008  -0.053128  -0.046723  -0.033969
     4  C   -0.001330   0.001487   0.000304  -0.006991   0.000960   0.015661
[...]
     6  C   -0.049108  -0.000229
     7  S   -0.019676   0.000377
     8  C    0.206470  -0.035235
     9  C    0.069091   0.023018
    10  C    0.030150   0.020385
    11  C    0.039486   0.020364
    12  C    0.061779   0.023700
    28  S    0.890350  -0.000081
    29  O   -0.511862   0.000001
    30  O   -0.568780  -0.000023
    31  C    0.149968  -0.000010
 Electronic spatial extent (au):  <R**2>=           4765.8673
 Charge=              0.0000 electrons
 Dipole moment (field-independent basis, Debye):
    X=              4.1631    Y=              1.8401    Z=             -2.2500  Tot=              5.0774
 Quadrupole moment (field-independent basis, Debye-Ang):
   XX=           -107.1607   YY=           -109.0330   ZZ=           -116.4000
   XY=              5.2908   XZ=              7.1225   YZ=             -0.6328
 Traceless Quadrupole moment (field-independent basis, Debye-Ang):
   XX=              3.7039   YY=              1.8316   ZZ=             -5.5355
   XY=              5.2908   XZ=              7.1225   YZ=             -0.6328
 Octapole moment (field-independent basis, Debye-Ang**2):
  XXX=            184.4783  YYY=             -3.7787  ZZZ=              0.1751  XYY=            -13.8765
  XXY=             -8.5141  XXZ=             -9.9829  XZZ=              0.8721  YZZ=              5.9619
  YYZ=             -2.4557  XYZ=              0.5169
 Hexadecapole moment (field-independent basis, Debye-Ang**3):
 XXXX=          -3938.2208 YYYY=          -1372.1657 ZZZZ=           -688.5550 XXXY=            -21.1849
 XXXZ=            127.9801 YYYX=            -16.9636 YYYZ=              0.9857 ZZZX=            -10.3825
 ZZZY=             -2.5228 XXYY=           -931.6492 XXZZ=           -860.3223 YYZZ=           -351.8467
 XXYZ=             -4.0896 YYXZ=             -4.3074 ZZXY=             14.7103
 N-N= 1.521141495506D+03 E-N=-6.497694012740D+03  KE= 1.459893665842D+03
                          Isotropic Fermi Contact Couplings
        Atom                 a.u.       MegaHertz       Gauss      10(-4) cm-1
     1  O(17)              0.08648     -52.42100     -18.70512     -17.48576
     2  N(14)              0.10791      34.86461      12.44056      11.62958
     3  C(13)             -0.01444     -16.23770      -5.79402      -5.41631
     4  C(13)             -0.00016      -0.17793      -0.06349      -0.05935
     5  C(13)             -0.00032      -0.36134      -0.12893      -0.12053
     6  C(13)             -0.00071      -0.80184      -0.28612      -0.26747
     7  S(33)             -0.00002      -0.00550      -0.00196      -0.00183
     8  C(13)             -0.01470     -16.52024      -5.89483      -5.51056
     9  C(13)              0.01225      13.77147       4.91400       4.59367
    10  C(13)              0.01788      20.10211       7.17293       6.70534
    11  C(13)              0.01758      19.76025       7.05095       6.59131
    12  C(13)              0.01268      14.25073       5.08501       4.75353
    13  H(1)              -0.00031      -1.37390      -0.49024      -0.45828
    14  H(1)               0.00002       0.09182       0.03276       0.03063
    15  H(1)               0.00001       0.04139       0.01477       0.01381
    16  H(1)              -0.00039      -1.76032      -0.62813      -0.58718
    17  H(1)               0.00026       1.14585       0.40887       0.38221
    18  H(1)              -0.00052      -2.33467      -0.83307      -0.77876
    19  H(1)              -0.00049      -2.17709      -0.77684      -0.72620
    20  H(1)               0.00039       1.73959       0.62073       0.58027
    21  H(1)              -0.00033      -1.47780      -0.52731      -0.49294
    22  H(1)              -0.00033      -1.49442      -0.53324      -0.49848
    23  H(1)               0.00036       1.62494       0.57982       0.54202
    24  H(1)              -0.00047      -2.09268      -0.74672      -0.69804
    25  H(1)              -0.00051      -2.27387      -0.81137      -0.75848
    26  H(1)               0.00029       1.30482       0.46559       0.43524
    27  H(1)              -0.00040      -1.79266      -0.63966      -0.59797
    28  S(33)              0.00000       0.00056       0.00020       0.00019
    29  O(17)             -0.00001       0.00376       0.00134       0.00126
    30  O(17)             -0.00003       0.01882       0.00672       0.00628
    31  C(13)             -0.00001      -0.00580      -0.00207      -0.00193
    32  H(1)               0.00000       0.00108       0.00038       0.00036
    33  H(1)               0.00000       0.00024       0.00009       0.00008
    34  H(1)              -0.00000      -0.00058      -0.00021      -0.00019
 --------------------------------------------------------
       Center         ----  Spin Dipole Couplings  ----
                      3XX-RR        3YY-RR        3ZZ-RR
 --------------------------------------------------------
     1   Atom       -0.175518     -0.885965      1.061483
     2   Atom       -0.129039     -0.553523      0.682561
     3   Atom       -0.005476      0.011963     -0.006487
     4   Atom        0.004783     -0.005117      0.000334
     5   Atom        0.008453     -0.007184     -0.001269
     6   Atom        0.002292     -0.001438     -0.000854
     7   Atom        0.002248     -0.001270     -0.000978
     8   Atom        0.003355      0.004968     -0.008323
     9   Atom       -0.010990     -0.000935      0.011925
    10   Atom       -0.010077      0.019813     -0.009736
    11   Atom       -0.001118      0.002583     -0.001465
    12   Atom       -0.016909      0.015506      0.001403
    13   Atom        0.001789     -0.001057     -0.000733
    14   Atom        0.001461     -0.001211     -0.000249
    15   Atom        0.001227     -0.000685     -0.000542
    16   Atom        0.003365     -0.003386      0.000021
    17   Atom        0.000436      0.001918     -0.002354
    18   Atom       -0.002118      0.004405     -0.002287
    19   Atom       -0.004853      0.009706     -0.004853
    20   Atom       -0.001238      0.003889     -0.002650
    21   Atom       -0.005626      0.000542      0.005084
    22   Atom       -0.005799     -0.002144      0.007943
    23   Atom       -0.002714      0.003615     -0.000901
    24   Atom       -0.001784      0.003887     -0.002103
    25   Atom       -0.004888      0.009993     -0.005105
    26   Atom       -0.002837      0.005384     -0.002547
    27   Atom       -0.000436      0.001847     -0.001411
    28   Atom        0.001422     -0.000725     -0.000697
    29   Atom        0.001467     -0.000688     -0.000779
    30   Atom        0.001035     -0.000589     -0.000446
    31   Atom        0.000662     -0.000329     -0.000333
    32   Atom        0.000620     -0.000311     -0.000309
    33   Atom        0.000519     -0.000249     -0.000270
    34   Atom        0.000552     -0.000285     -0.000266
 --------------------------------------------------------
                        XY            XZ            YZ
 --------------------------------------------------------
     1   Atom       -0.312897      1.377641     -0.496185
     2   Atom       -0.182447      0.785364     -0.296915
     3   Atom       -0.008660     -0.001071      0.006593
     4   Atom       -0.006290     -0.007294      0.003019
     5   Atom        0.002648     -0.007513     -0.001280
     6   Atom        0.000993     -0.001793     -0.000407
     7   Atom        0.000882      0.000488      0.000177
     8   Atom        0.012790     -0.000850     -0.002590
     9   Atom        0.010149      0.007672      0.021462
    10   Atom       -0.010718      0.004038     -0.017616
    11   Atom        0.015148      0.013866      0.018669
    12   Atom       -0.003493     -0.001411     -0.022977
    13   Atom       -0.002814     -0.002839      0.001646
    14   Atom        0.000294     -0.001636     -0.000192
    15   Atom        0.001543     -0.001640     -0.000912
    16   Atom        0.003578      0.007051      0.002027
    17   Atom        0.005268      0.000572      0.001153
    18   Atom        0.005983      0.002202      0.007961
    19   Atom       -0.001674     -0.001144     -0.005189
    20   Atom        0.003300     -0.001015     -0.003078
    21   Atom        0.001137      0.000146     -0.007473
    22   Atom        0.000517      0.002740      0.005403
    23   Atom       -0.000988     -0.000129      0.004623
    24   Atom        0.005474      0.001943      0.006954
    25   Atom       -0.001459     -0.001341     -0.005308
    26   Atom       -0.003434     -0.000672      0.000334
    27   Atom       -0.005884      0.004794     -0.004372
    28   Atom       -0.000213     -0.000167      0.000026
    29   Atom       -0.000555      0.000341     -0.000082
    30   Atom       -0.000408     -0.000557      0.000136
    31   Atom       -0.000043     -0.000046      0.000003
    32   Atom        0.000035      0.000068      0.000003
    33   Atom       -0.000125     -0.000021      0.000003
    34   Atom        0.000020     -0.000131     -0.000002
 --------------------------------------------------------


 ---------------------------------------------------------------------------------
              Anisotropic Spin Dipole Couplings in Principal Axis System
 ---------------------------------------------------------------------------------

       Atom             a.u.   MegaHertz   Gauss  10(-4) cm-1        Axes

              Baa    -1.0678    77.268    27.571    25.774  0.8244 -0.1012 -0.5569
     1 O(17)  Bbb    -1.0017    72.481    25.863    24.177  0.1917  0.9756  0.1066
              Bcc     2.0695  -149.748   -53.434   -49.951  0.5326 -0.1947  0.8237
 
              Baa    -0.6218   -23.981    -8.557    -7.999  0.1805  0.9770  0.1137
     2 N(14)  Bbb    -0.6071   -23.415    -8.355    -7.810  0.8407 -0.0932 -0.5334
              Bcc     1.2289    47.396    16.912    15.810  0.5105 -0.1919  0.8382
 
              Baa    -0.0102    -1.366    -0.487    -0.456  0.6766  0.4404 -0.5902
     3 C(13)  Bbb    -0.0071    -0.958    -0.342    -0.319  0.6460  0.0296  0.7628
              Bcc     0.0173     2.324     0.829     0.775 -0.3534  0.8973  0.2644
 
              Baa    -0.0082    -1.103    -0.394    -0.368  0.4782  0.8726  0.0998
     4 C(13)  Bbb    -0.0046    -0.617    -0.220    -0.206  0.4303 -0.3318  0.8395
              Bcc     0.0128     1.720     0.614     0.574  0.7657 -0.3585 -0.5341
 
              Baa    -0.0076    -1.023    -0.365    -0.341 -0.1557  0.9877  0.0149
     5 C(13)  Bbb    -0.0053    -0.718    -0.256    -0.239  0.4683  0.0605  0.8815
              Bcc     0.0130     1.740     0.621     0.581  0.8698  0.1442 -0.4719
 
              Baa    -0.0017    -0.230    -0.082    -0.077 -0.4188  0.7416 -0.5240
     6 C(13)  Bbb    -0.0016    -0.219    -0.078    -0.073  0.1827  0.6341  0.7513
              Bcc     0.0033     0.449     0.160     0.150  0.8895  0.2189 -0.4011
 
              Baa    -0.0015    -0.061    -0.022    -0.020 -0.2112  0.9683 -0.1336
     7 S(33)  Bbb    -0.0010    -0.043    -0.015    -0.014 -0.1714  0.0978  0.9803
              Bcc     0.0025     0.104     0.037     0.035  0.9623  0.2300  0.1453
 
              Baa    -0.0098    -1.309    -0.467    -0.437 -0.4821  0.5401  0.6899
     8 C(13)  Bbb    -0.0075    -1.001    -0.357    -0.334  0.5547 -0.4213  0.7175
              Bcc     0.0172     2.310     0.824     0.771  0.6782  0.7286 -0.0965
 
              Baa    -0.0193    -2.596    -0.926    -0.866 -0.5590  0.7412 -0.3715
     9 C(13)  Bbb    -0.0121    -1.622    -0.579    -0.541  0.7811  0.3205 -0.5359
              Bcc     0.0314     4.219     1.505     1.407  0.2782  0.5898  0.7581
 
              Baa    -0.0181    -2.429    -0.867    -0.810  0.1653  0.4536  0.8757
    10 C(13)  Bbb    -0.0131    -1.757    -0.627    -0.586  0.9495  0.1670 -0.2657
              Bcc     0.0312     4.186     1.494     1.396 -0.2668  0.8754 -0.4031
 
              Baa    -0.0182    -2.446    -0.873    -0.816 -0.0342 -0.6535  0.7562
    11 C(13)  Bbb    -0.0138    -1.855    -0.662    -0.619  0.8495 -0.4175 -0.3224
              Bcc     0.0321     4.301     1.535     1.435  0.5264  0.6314  0.5695
 
              Baa    -0.0196    -2.626    -0.937    -0.876  0.7786  0.3963  0.4866
    12 C(13)  Bbb    -0.0130    -1.744    -0.622    -0.582 -0.6263  0.4413  0.6427
              Bcc     0.0326     4.370     1.559     1.458 -0.0400  0.8051 -0.5918
 
              Baa    -0.0028    -1.498    -0.534    -0.500  0.6050  0.7649  0.2213
    13 H(1)   Bbb    -0.0025    -1.332    -0.475    -0.444  0.2644 -0.4551  0.8503
              Bcc     0.0053     2.829     1.010     0.944  0.7510 -0.4559 -0.4776
 
              Baa    -0.0013    -0.669    -0.239    -0.223  0.2667  0.7692  0.5808
    14 H(1)   Bbb    -0.0012    -0.656    -0.234    -0.219 -0.4517  0.6320 -0.6296
              Bcc     0.0025     1.326     0.473     0.442  0.8514  0.0944 -0.5160
 
              Baa    -0.0015    -0.824    -0.294    -0.275 -0.4987  0.8663 -0.0278
    15 H(1)   Bbb    -0.0015    -0.810    -0.289    -0.270  0.3880  0.2518  0.8866
              Bcc     0.0031     1.634     0.583     0.545  0.7751  0.4314 -0.4617
 
              Baa    -0.0058    -3.120    -1.113    -1.041  0.6488 -0.4206 -0.6342
    16 H(1)   Bbb    -0.0043    -2.301    -0.821    -0.768  0.0634  0.8604 -0.5056
              Bcc     0.0102     5.422     1.935     1.808  0.7584  0.2878  0.5849
 
              Baa    -0.0042    -2.243    -0.800    -0.748  0.7270 -0.6607  0.1869
    17 H(1)   Bbb    -0.0025    -1.315    -0.469    -0.439 -0.2307  0.0213  0.9728
              Bcc     0.0067     3.558     1.270     1.187  0.6467  0.7503  0.1369
 
              Baa    -0.0081    -4.344    -1.550    -1.449  0.3541 -0.6156  0.7040
    18 H(1)   Bbb    -0.0042    -2.257    -0.805    -0.753  0.8473 -0.1075 -0.5202
              Bcc     0.0124     6.600     2.355     2.202  0.3959  0.7807  0.4835
 
              Baa    -0.0075    -4.006    -1.429    -1.336  0.5277  0.2918  0.7977
    19 H(1)   Bbb    -0.0040    -2.110    -0.753    -0.704  0.8459 -0.0956 -0.5246
              Bcc     0.0115     6.116     2.182     2.040 -0.0768  0.9517 -0.2973
 
              Baa    -0.0039    -2.094    -0.747    -0.699 -0.1941  0.4294  0.8820
    20 H(1)   Bbb    -0.0027    -1.437    -0.513    -0.479  0.8950 -0.2905  0.3384
              Bcc     0.0066     3.531     1.260     1.178  0.4016  0.8551 -0.3279
 
              Baa    -0.0064    -3.400    -1.213    -1.134  0.8083 -0.4884 -0.3289
    21 H(1)   Bbb    -0.0043    -2.279    -0.813    -0.760  0.5878  0.6365  0.4993
              Bcc     0.0106     5.678     2.026     1.894 -0.0345 -0.5969  0.8016
 
              Baa    -0.0064    -3.435    -1.226    -1.146  0.9419  0.2132 -0.2595
    22 H(1)   Bbb    -0.0043    -2.295    -0.819    -0.765 -0.2939  0.8970 -0.3300
              Bcc     0.0107     5.730     2.044     1.911  0.1625  0.3872  0.9076
 
              Baa    -0.0039    -2.101    -0.750    -0.701 -0.3399 -0.5229  0.7817
    23 H(1)   Bbb    -0.0027    -1.415    -0.505    -0.472  0.9354 -0.1021  0.3384
              Bcc     0.0066     3.516     1.255     1.173 -0.0971  0.8462  0.5239
 
              Baa    -0.0072    -3.863    -1.378    -1.289  0.3713 -0.6165  0.6942
    24 H(1)   Bbb    -0.0037    -1.994    -0.712    -0.665  0.8346 -0.1061 -0.5406
              Bcc     0.0110     5.857     2.090     1.954  0.4070  0.7801  0.4752
 
              Baa    -0.0078    -4.168    -1.487    -1.390  0.5131  0.2836  0.8102
    25 H(1)   Bbb    -0.0039    -2.091    -0.746    -0.698  0.8563 -0.1033 -0.5061
              Bcc     0.0117     6.259     2.234     2.088 -0.0598  0.9534 -0.2958
 
              Baa    -0.0042    -2.264    -0.808    -0.755  0.9028  0.3117  0.2963
    26 H(1)   Bbb    -0.0024    -1.290    -0.460    -0.430 -0.2593 -0.1549  0.9533
              Bcc     0.0067     3.554     1.268     1.186 -0.3431  0.9375  0.0590
 
              Baa    -0.0059    -3.174    -1.132    -1.059  0.7814  0.2758 -0.5598
    27 H(1)   Bbb    -0.0043    -2.297    -0.820    -0.766  0.2341  0.7020  0.6726
              Bcc     0.0103     5.471     1.952     1.825 -0.5785  0.6566 -0.4839
 
              Baa    -0.0007    -0.031    -0.011    -0.010  0.0760  0.9670 -0.2433
    28 S(33)  Bbb    -0.0007    -0.029    -0.010    -0.010  0.0996  0.2355  0.9668
              Bcc     0.0015     0.060     0.021     0.020  0.9921 -0.0978 -0.0784
 
              Baa    -0.0008     0.060     0.021     0.020 -0.1707 -0.1048  0.9797
    29 O(17)  Bbb    -0.0008     0.060     0.021     0.020  0.2136  0.9667  0.1406
              Bcc     0.0017    -0.120    -0.043    -0.040  0.9619 -0.2333  0.1426
 
              Baa    -0.0007     0.050     0.018     0.017  0.2097  0.9755 -0.0666
    30 O(17)  Bbb    -0.0006     0.046     0.016     0.015  0.3164 -0.0032  0.9486
              Bcc     0.0013    -0.095    -0.034    -0.032  0.9252 -0.2200 -0.3093
 
              Baa    -0.0003    -0.045    -0.016    -0.015  0.0375 -0.1736  0.9841
    31 C(13)  Bbb    -0.0003    -0.044    -0.016    -0.015  0.0503  0.9839  0.1717
              Bcc     0.0007     0.089     0.032     0.030  0.9980 -0.0430 -0.0456
 
              Baa    -0.0003    -0.168    -0.060    -0.056 -0.0677 -0.1297  0.9892
    32 H(1)   Bbb    -0.0003    -0.167    -0.059    -0.056 -0.0463  0.9909  0.1267
              Bcc     0.0006     0.334     0.119     0.112  0.9966  0.0373  0.0731
 
              Baa    -0.0003    -0.144    -0.051    -0.048  0.0237 -0.0202  0.9995
    33 H(1)   Bbb    -0.0003    -0.144    -0.051    -0.048  0.1571  0.9875  0.0162
              Bcc     0.0005     0.288     0.103     0.096  0.9873 -0.1566 -0.0266
 
              Baa    -0.0003    -0.153    -0.055    -0.051  0.1486 -0.4487  0.8813
    34 H(1)   Bbb    -0.0003    -0.152    -0.054    -0.051  0.0484  0.8934  0.4467
              Bcc     0.0006     0.306     0.109     0.102  0.9877  0.0238 -0.1545
 

 ---------------------------------------------------------------------------------

 No NMR shielding tensors so no spin-rotation constants.
 Leave Link  601 at Mon Jun 17 21:27:59 2019, MaxMem=  8053063680 cpu:               0.0 elap:               0.3
 (Enter /data2/g16/g16/l9999.exe)
 1\1\GINC-CU04\SP\UPBE1PBE\Gen\C10H18N1O3S2(2)\ROOT\17-Jun-2019\0\\#p g
 en 6d pbe1pbe\\start preoptimized\\0,2\O,0,-3.668382,0.167049,1.045701
 \N,0,-2.642731,0.044869,0.312621\C,0,-2.170633,-1.267829,-0.171432\C,0
 ,-0.861483,-0.864992,-0.780739\C,0,-0.596004,0.439174,-0.648388\C,0,0.
 609845,1.120676,-1.194288\S,0,1.947267,1.450961,0.033285\C,0,-1.701906
 ,1.165435,0.091041\C,0,-1.283336,1.74551,1.443911\C,0,-2.385499,2.2388
 54,-0.763214\C,0,-3.152501,-1.828344,-1.20368\C,0,-2.017442,-2.228864,
 1.011931\H,0,-0.206633,-1.579274,-1.274013\H,0,1.066489,0.534549,-1.99
 3542\H,0,0.383648,2.119595,-1.583368\H,0,-0.748615,1.00294,2.041319\H,
 0,-0.633383,2.616865,1.310361\H,0,-2.182828,2.055191,1.984522\H,0,-3.2
 97392,2.574135,-0.256046\H,0,-1.732485,3.10813,-0.900669\H,0,-2.659398
 ,1.844268,-1.746386\H,0,-3.250285,-1.151558,-2.060764\H,0,-2.806584,-2
 .804533,-1.566576\H,0,-4.137369,-1.954048,-0.742838\H,0,-2.985751,-2.3
 40614,1.51097\H,0,-1.681577,-3.211013,0.660368\H,0,-1.287809,-1.85185,
 1.732799\S,0,2.753723,-0.529788,0.105176\O,0,2.326832,-1.20809,1.34802
 4\O,0,2.498039,-1.168562,-1.208659\C,0,4.510088,-0.18378,0.237746\H,0,
 4.669752,0.428618,1.129087\H,0,4.989213,-1.159587,0.349106\H,0,4.83039
 8,0.324314,-0.671095\\Version=AM64L-G16RevB.01\State=2-A\HF=-1467.5484
 351\S2=0.754999\S2-1=0.\S2A=0.750017\RMSD=7.941e-09\Dipole=1.6342516,0
 .726534,-0.8898384\Quadrupole=2.7626666,1.3773768,-4.1400433,3.9403083
 ,5.2761091,-0.4740016\PG=C01 [X(C10H18N1O3S2)]\\@


 MY GROUP MEETINGS AREN'T VERY STRUCTURED.
     -- PROF. M. S. GORDON, OCT. 5, 1984
 Elapsed time:       0 days  0 hours  2 minutes 39.7 seconds.
 File lengths (MBytes):  RWF=    181 Int=      0 D2E=      0 Chk=     15 Scr=      1
 Normal termination of Gaussian 16 at Mon Jun 17 21:28:00 2019.
