 Entering Gaussian System, Link 0=g16
 AtFile(1): /home/malgo/Basis_sets/n07d_pbe0.gbs
            -H 0
             6-31G
             S   1 1.00       0.000000000000
                  0.4000000000D+00  0.10000000D+01
             P   1 1.00       0.000000000000
                  0.7500000000D+00  0.10000000D+01
             ****
             -He 0
             6-31+G**
             ****
             -Li 0
             6-31+G**
             ****
             -Be 0
             6-31+G**
             ****
             -B 0
             6-31G
             S   1 1.00       0.000000000000
                  0.7000000000D+01  0.1000000000D+01
             P   1 1.00       0.000000000000
                  0.3500000000D-01  0.1000000000D+01
             D   1 1.00
                  0.3430000000D+00  0.1000000000D+01
             ****
             -C 0
             6-31G
             S   1 1.00       0.000000000000
                  0.8700000000D+01  0.1000000000D+01
             P   1 1.00       0.000000000000
                  0.5000000000D-01  0.1000000000D+01
             D   1 1.00
                  0.8200000000D+00  0.1000000000D+01
             ****
             -N 0
             6-31G
             S   1 1.00       0.000000000000
                  0.1370000000D+02  0.1000000000D+01
             P   1 1.00       0.000000000000
                  0.5300000000D-01  0.1000000000D+01
             D   1 1.00       0.000000000000
                  0.1015000000D+01  0.1000000000D+01
             ****
             -O 0
             6-31G
             S   1 1.00
                  0.1600000000D+02  0.1000000000D+01
             P   1 1.00       0.000000000000
                  0.6500000000D-01  0.1000000000D+01
             D   1 1.00        0.000000000000
                  0.1190000000D+01  0.1000000000D+01
             D   1 1.00        0.000000000000
                  0.1800000000D+00  0.1000000000D+01
             ****
             -F 0
             6-31G
             S   1 1.00
                  0.1770000000D+02  0.1000000000D+01
             P   1 1.00       0.000000000000
                  0.8300000000D-01  0.1000000000D+01
             D   1 1.00       0.000000000000
                  1.3700000000D+00  0.1000000000D+01
             D   1 1.00       0.000000000000
                  0.2300000000D+00  0.1000000000D+01
             ****
             -Ne 0
             6-31+G**
             ****
             -Na 0
             6-31+G**
             ****
             -Mg 0
             6-31+G**
             ****
             -Al 0
             6-31G
             S   1 1.00      0.000000000000
                  0.3100000000D+01  0.1000000000D+01
             P   1 1.00      0.000000000000
                  0.1500000000D-01  0.1000000000D+01
             D   1 1.00      0.000000000000
                  0.1890000000D+00  0.1000000000D+01
             ****
             -Si 0
             6-31G
             S   1 1.00      0.000000000000
                  0.5000000000D+01  0.1000000000D+01
             P   1 1.00       0.000000000000
                  0.3300000000D-01  0.1000000000D+01
             D   1 1.0        0.000000000000
                  0.2750000000D+00  0.1000000000D+01
             ****
             -P  0
             6-31G
             S   1 1.00       0.000000000000
                  0.6300000000D+01  0.1000000000D+01
             P   1 1.00       0.000000000000
                  0.3500000000D-01  0.1000000000D+01
             D   1 1.00       0.000000000000
                  0.3730000000D+00  0.1000000000D+01
             ****
             -S  0
             6-31G
             S   1  1.00      0.000000000000
                  0.7500000000D+01  0.1000000000D+01
             P   1 1.00       0.000000000000
                  0.4100000000D-01  0.1000000000D+01
             D   1 1.00       0.000000000000
                  0.4790000000D+00  0.1000000000D+01
             ****
            -Cl 0
             6-31G
             S   1 1.00       0.000000000000
                  0.8500000000D+01  0.1000000000D+01
             P   1 1.00       0.000000000000
                  0.4800000000D-01  0.1000000000D+01
             D   1 1.00       0.000000000000
                  0.6000000000D+00  0.1000000000D+01
             D   1 1.00       0.000000000000
                  0.1960000000D+00  0.1000000000D+01
             ****
            -Br 0
             S   3 1.00       0.000000000000
                  0.4721881000D+01  0.1749732514D+00
                  0.2257555000D+01 -0.7074172290D+00
                  0.3896080000D+00  0.1258999543D+01
             S   1 1.00       0.000000000000
                  0.1471340000D+00  0.1000000000D+01
             P   3 1.00       0.000000000000
                  0.1896942000D+01 -0.2464576731D+00
                  0.9108990000D+00  0.3623179892D+00
                  0.3168550000D+00  0.8338469725D+00
             P   1 1.00       0.000000000000
                  0.1095030000D+00  0.1000000000D+01
             P   1 1.00       0.000000000000
                  0.3609700000D-01  0.1000000000D+01
             D   1 1.00
                  0.4750000000D+00  0.1000000000D+01
             D   1 1.00
                  0.1280000000D+00  0.1000000000D+01
             ****
            -I   0
             S   3 1.00       0.000000000000
                  0.2122765000D+01  0.2063429899D+01
                  0.1770481000D+01 -0.2869526473D+01
                  0.3130840000D+00  0.1404747074D+01
             S   1 1.00       0.000000000000
                  0.1320000000D+00  0.1000000000D+01
             P   3 1.00       0.000000000000
                  0.2432887000D+01  0.7732753148D+00
                  0.2137249000D+01 -0.1020833156D+01
                  0.3145460000D+00  0.1095666871D+01
             P   1 1.00       0.000000000000
                  0.1049450000D+00  0.1000000000D+01
             P   1 1.00       0.000000000000
                  0.3264100000D-01  0.1000000000D+01
             D   1 1.00
                  0.300000000          1.00000000
             D   1 1.00
                  0.090000000          1.00000000
             ****
             -Zn 0
             SP   6 1.00       0.000000000000
                  0.6936492000D+02 -0.4440098182D-02 -0.7689261805D-02
                  0.2362082000D+02  0.7505253308D-01 -0.2997981924D-01
                  0.1018471000D+02  0.2533111104D+00  0.7082410821D-01
                  0.4334082000D+01 -0.2881897118D+00  0.4046140897D+00
                  0.1810918000D+01 -0.7267052298D+00  0.4882324876D+00
                  0.7148410000D+00 -0.2133439088D+00  0.1751969956D+00
             SP   3 1.00       0.000000000000
                  0.2823842000D+01  0.4898545031D-01 -0.1586762981D+00
                  0.1039543000D+01  0.2592794075D+00  0.8379326898D-01
                  0.1432640000D+00 -0.1115711463D+01  0.9840546881D+00
             SP   1 1.00       0.000000000000
                  0.4929600000D-01  0.1000000000D+01  0.1000000000D+01
             S    1 1.00       0.000000000000
                  0.1620000000D+00  0.1000000000D+01
             D    3 1.00       0.000000000000
                  0.3370764000D+02  0.9262647815D-01
                  0.9061106000D+01  0.4002979920D+00
                  0.2738383000D+01  0.6896607863D+00
             D    1 1.00
                  0.2440000000D+01  0.1000000000D+01
             D    1 1.00       0.000000000000
                  0.7302940000D+00  0.1000000000D+01
             D    1 1.00       0.000000000000
                  0.1620000000D+00  0.1000000000D+01
            ****
 Initial command:
 /data2/g16/g16/l1.exe "/tmp/Gau-16530.inp" -scrdir="/tmp/"
 Entering Link 1 = /data2/g16/g16/l1.exe PID=     16531.
  
 Copyright (c) 1988-2017, Gaussian, Inc.  All Rights Reserved.
  
 This is part of the Gaussian(R) 16 program.  It is based on
 the Gaussian(R) 09 system (copyright 2009, Gaussian, Inc.),
 the Gaussian(R) 03 system (copyright 2003, Gaussian, Inc.),
 the Gaussian(R) 98 system (copyright 1998, Gaussian, Inc.),
 the Gaussian(R) 94 system (copyright 1995, Gaussian, Inc.),
 the Gaussian 92(TM) system (copyright 1992, Gaussian, Inc.),
 the Gaussian 90(TM) system (copyright 1990, Gaussian, Inc.),
 the Gaussian 88(TM) system (copyright 1988, Gaussian, Inc.),
 the Gaussian 86(TM) system (copyright 1986, Carnegie Mellon
 University), and the Gaussian 82(TM) system (copyright 1983,
 Carnegie Mellon University). Gaussian is a federally registered
 trademark of Gaussian, Inc.
  
 This software contains proprietary and confidential information,
 including trade secrets, belonging to Gaussian, Inc.
  
 This software is provided under written license and may be
 used, copied, transmitted, or stored only in accord with that
 written license.
  
 The following legend is applicable only to US Government
 contracts under FAR:
  
                    RESTRICTED RIGHTS LEGEND
  
 Use, reproduction and disclosure by the US Government is
 subject to restrictions as set forth in subparagraphs (a)
 and (c) of the Commercial Computer Software - Restricted
 Rights clause in FAR 52.227-19.
  
 Gaussian, Inc.
 340 Quinnipiac St., Bldg. 40, Wallingford CT 06492
  
  
 ---------------------------------------------------------------
 Warning -- This program may not be used in any manner that
 competes with the business of Gaussian, Inc. or will provide
 assistance to any competitor of Gaussian, Inc.  The licensee
 of this program is prohibited from giving any competitor of
 Gaussian, Inc. access to this program.  By using this program,
 the user acknowledges that Gaussian, Inc. is engaged in the
 business of creating and licensing software in the field of
 computational chemistry and represents and warrants to the
 licensee that it is not a competitor of Gaussian, Inc. and that
 it will not use this program in any manner prohibited above.
 ---------------------------------------------------------------
  

 Cite this work as:
 Gaussian 16, Revision B.01,
 M. J. Frisch, G. W. Trucks, H. B. Schlegel, G. E. Scuseria, 
 M. A. Robb, J. R. Cheeseman, G. Scalmani, V. Barone, 
 G. A. Petersson, H. Nakatsuji, X. Li, M. Caricato, A. V. Marenich, 
 J. Bloino, B. G. Janesko, R. Gomperts, B. Mennucci, H. P. Hratchian, 
 J. V. Ortiz, A. F. Izmaylov, J. L. Sonnenberg, D. Williams-Young, 
 F. Ding, F. Lipparini, F. Egidi, J. Goings, B. Peng, A. Petrone, 
 T. Henderson, D. Ranasinghe, V. G. Zakrzewski, J. Gao, N. Rega, 
 G. Zheng, W. Liang, M. Hada, M. Ehara, K. Toyota, R. Fukuda, 
 J. Hasegawa, M. Ishida, T. Nakajima, Y. Honda, O. Kitao, H. Nakai, 
 T. Vreven, K. Throssell, J. A. Montgomery, Jr., J. E. Peralta, 
 F. Ogliaro, M. J. Bearpark, J. J. Heyd, E. N. Brothers, K. N. Kudin, 
 V. N. Staroverov, T. A. Keith, R. Kobayashi, J. Normand, 
 K. Raghavachari, A. P. Rendell, J. C. Burant, S. S. Iyengar, 
 J. Tomasi, M. Cossi, J. M. Millam, M. Klene, C. Adamo, R. Cammi, 
 J. W. Ochterski, R. L. Martin, K. Morokuma, O. Farkas, 
 J. B. Foresman, and D. J. Fox, Gaussian, Inc., Wallingford CT, 2016.
 
 ******************************************
 Gaussian 16:  AM64L-G16RevB.01 20-Dec-2017
                17-Jun-2019 
 ******************************************
 %chk=MTN_PBE0_0.21.chk
 %mem=60GB
 %nprocshared=12
 Will use up to   12 processors via shared memory.
 -----------------
 #p gen 6d pbe1pbe
 -----------------
 1/38=1,172=1/1;
 2/12=2,17=6,18=5,40=1/2;
 3/5=7,8=2,11=2,25=1,30=1,74=-13/1,2,3;
 4//1;
 5/5=2,38=5/2;
 6/7=2,8=2,9=2,10=2,28=1/1;
 99/5=1,9=1/99;
 Leave Link    1 at Mon Jun 17 21:19:54 2019, MaxMem=  8053063680 cpu:               0.0 elap:               0.1
 (Enter /data2/g16/g16/l101.exe)
 ------------------
 start preoptimized
 ------------------
 Symbolic Z-matrix:
 Charge =  0 Multiplicity = 2
 O                    -3.67408   0.16945   1.0352 
 N                    -2.64063   0.04427   0.31682 
 C                    -2.17003  -1.26783  -0.17053 
 C                    -0.86268  -0.86409  -0.78314 
 C                    -0.5966    0.43977  -0.64899 
 C                     0.60955   1.12098  -1.19459 
 S                     1.94697   1.45036   0.03329 
 C                    -1.70131   1.16543   0.09254 
 C                    -1.28034   1.74671   1.44421 
 C                    -2.3879    2.23765  -0.76051 
 C                    -3.1561   -1.82714  -1.19918 
 C                    -2.01144  -2.23066   1.01043 
 H                    -0.20873  -1.57807  -1.27791 
 H                     1.06619   0.53485  -1.99414 
 H                     0.38395   2.1202   -1.58337 
 H                    -0.74352   1.00504   2.04102 
 H                    -0.63158   2.61867   1.30916 
 H                    -2.17893   2.05609   1.98662 
 H                    -3.29859   2.57234  -0.25125 
 H                    -1.73579   3.10723  -0.90007 
 H                    -2.6639    1.84217  -1.74279 
 H                    -3.25748  -1.14946  -2.05476 
 H                    -2.81198  -2.80273  -1.56448 
 H                    -4.13887  -1.95315  -0.73414 
 H                    -2.97735  -2.34451   1.51337 
 H                    -1.67618  -3.21191   0.65617 
 H                    -1.27911  -1.85395   1.7289 
 S                     2.75402  -0.53009   0.10548 
 O                     2.32743  -1.20839   1.34832 
 O                     2.49864  -1.16946  -1.20836 
 C                     4.51009  -0.18288   0.23835 
 H                     4.66915   0.42982   1.12939 
 H                     4.98981  -1.15839   0.35001 
 H                     4.8304    0.32491  -0.6708 
 
 ITRead=  0  0  0  0  0  0  0  0  0  0  0  0  0  0  0  0  0  0  0  0
 ITRead=  0  0  0  0  0  0  0  0  0  0  0  0  0  0
 MicOpt= -1 -1 -1 -1 -1 -1 -1 -1 -1 -1 -1 -1 -1 -1 -1 -1 -1 -1 -1 -1
 MicOpt= -1 -1 -1 -1 -1 -1 -1 -1 -1 -1 -1 -1 -1 -1
 NAtoms=     34 NQM=       34 NQMF=       0 NMMI=      0 NMMIF=      0
                NMic=       0 NMicF=      0.
                    Isotopes and Nuclear Properties:
 (Nuclear quadrupole moments (NQMom) in fm**2, nuclear magnetic moments (NMagM)
  in nuclear magnetons)

  Atom         1           2           3           4           5           6           7           8           9          10
 IAtWgt=          16          14          12          12          12          12          32          12          12          12
 AtmWgt=  15.9949146  14.0030740  12.0000000  12.0000000  12.0000000  12.0000000  31.9720718  12.0000000  12.0000000  12.0000000
 NucSpn=           0           2           0           0           0           0           0           0           0           0
 AtZEff=   0.0000000   0.0000000   0.0000000   0.0000000   0.0000000   0.0000000   0.0000000   0.0000000   0.0000000   0.0000000
 NQMom=    0.0000000   2.0440000   0.0000000   0.0000000   0.0000000   0.0000000   0.0000000   0.0000000   0.0000000   0.0000000
 NMagM=    0.0000000   0.4037610   0.0000000   0.0000000   0.0000000   0.0000000   0.0000000   0.0000000   0.0000000   0.0000000
 AtZNuc=   8.0000000   7.0000000   6.0000000   6.0000000   6.0000000   6.0000000  16.0000000   6.0000000   6.0000000   6.0000000

  Atom        11          12          13          14          15          16          17          18          19          20
 IAtWgt=          12          12           1           1           1           1           1           1           1           1
 AtmWgt=  12.0000000  12.0000000   1.0078250   1.0078250   1.0078250   1.0078250   1.0078250   1.0078250   1.0078250   1.0078250
 NucSpn=           0           0           1           1           1           1           1           1           1           1
 AtZEff=   0.0000000   0.0000000   0.0000000   0.0000000   0.0000000   0.0000000   0.0000000   0.0000000   0.0000000   0.0000000
 NQMom=    0.0000000   0.0000000   0.0000000   0.0000000   0.0000000   0.0000000   0.0000000   0.0000000   0.0000000   0.0000000
 NMagM=    0.0000000   0.0000000   2.7928460   2.7928460   2.7928460   2.7928460   2.7928460   2.7928460   2.7928460   2.7928460
 AtZNuc=   6.0000000   6.0000000   1.0000000   1.0000000   1.0000000   1.0000000   1.0000000   1.0000000   1.0000000   1.0000000

  Atom        21          22          23          24          25          26          27          28          29          30
 IAtWgt=           1           1           1           1           1           1           1          32          16          16
 AtmWgt=   1.0078250   1.0078250   1.0078250   1.0078250   1.0078250   1.0078250   1.0078250  31.9720718  15.9949146  15.9949146
 NucSpn=           1           1           1           1           1           1           1           0           0           0
 AtZEff=   0.0000000   0.0000000   0.0000000   0.0000000   0.0000000   0.0000000   0.0000000   0.0000000   0.0000000   0.0000000
 NQMom=    0.0000000   0.0000000   0.0000000   0.0000000   0.0000000   0.0000000   0.0000000   0.0000000   0.0000000   0.0000000
 NMagM=    2.7928460   2.7928460   2.7928460   2.7928460   2.7928460   2.7928460   2.7928460   0.0000000   0.0000000   0.0000000
 AtZNuc=   1.0000000   1.0000000   1.0000000   1.0000000   1.0000000   1.0000000   1.0000000  16.0000000   8.0000000   8.0000000

  Atom        31          32          33          34
 IAtWgt=          12           1           1           1
 AtmWgt=  12.0000000   1.0078250   1.0078250   1.0078250
 NucSpn=           0           1           1           1
 AtZEff=   0.0000000   0.0000000   0.0000000   0.0000000
 NQMom=    0.0000000   0.0000000   0.0000000   0.0000000
 NMagM=    0.0000000   2.7928460   2.7928460   2.7928460
 AtZNuc=   6.0000000   1.0000000   1.0000000   1.0000000
 Leave Link  101 at Mon Jun 17 21:19:54 2019, MaxMem=  8053063680 cpu:               0.0 elap:               0.2
 (Enter /data2/g16/g16/l202.exe)
                          Input orientation:                          
 ---------------------------------------------------------------------
 Center     Atomic      Atomic             Coordinates (Angstroms)
 Number     Number       Type             X           Y           Z
 ---------------------------------------------------------------------
      1          8           0       -3.674082    0.169449    1.035201
      2          7           0       -2.640631    0.044269    0.316821
      3          6           0       -2.170033   -1.267829   -0.170532
      4          6           0       -0.862683   -0.864092   -0.783139
      5          6           0       -0.596604    0.439774   -0.648988
      6          6           0        0.609545    1.120976   -1.194588
      7         16           0        1.946967    1.450361    0.033285
      8          6           0       -1.701306    1.165435    0.092541
      9          6           0       -1.280336    1.746710    1.444211
     10          6           0       -2.387899    2.237654   -0.760514
     11          6           0       -3.156101   -1.827144   -1.199180
     12          6           0       -2.011442   -2.230664    1.010431
     13          1           0       -0.208733   -1.578074   -1.277913
     14          1           0        1.066189    0.534849   -1.994142
     15          1           0        0.383948    2.120195   -1.583368
     16          1           0       -0.743515    1.005040    2.041019
     17          1           0       -0.631583    2.618665    1.309161
     18          1           0       -2.178928    2.056091    1.986622
     19          1           0       -3.298592    2.572335   -0.251246
     20          1           0       -1.735785    3.107230   -0.900069
     21          1           0       -2.663898    1.842168   -1.742786
     22          1           0       -3.257485   -1.149458   -2.054764
     23          1           0       -2.811984   -2.802733   -1.564476
     24          1           0       -4.138869   -1.953148   -0.734138
     25          1           0       -2.977351   -2.344514    1.513370
     26          1           0       -1.676177   -3.211913    0.656168
     27          1           0       -1.279109   -1.853950    1.728899
     28         16           0        2.754023   -0.530088    0.105476
     29          8           0        2.327432   -1.208390    1.348324
     30          8           0        2.498639   -1.169462   -1.208359
     31          6           0        4.510088   -0.182880    0.238346
     32          1           0        4.669152    0.429818    1.129387
     33          1           0        4.989813   -1.158387    0.350006
     34          1           0        4.830398    0.324914   -0.670795
 ---------------------------------------------------------------------
                    Distance matrix (angstroms):
                    1          2          3          4          5
     1  O    0.000000
     2  N    1.264817   0.000000
     3  C    2.404521   1.476678   0.000000
     4  C    3.504074   2.279502   1.499151   0.000000
     5  C    3.518585   2.295051   2.370761   1.337483   0.000000
     6  C    4.922075   3.742633   3.805409   2.505442   1.488795
     7  S    5.851561   4.806614   4.937589   3.730600   2.820733
     8  C    2.402591   1.479745   2.491924   2.364124   1.515525
     9  C    2.895697   2.453511   3.533610   3.457139   2.560674
    10  C    3.025943   2.456718   3.561454   3.456534   2.540383
    11  C    3.040912   2.462957   1.530778   2.521969   3.463041
    12  C    2.919851   2.460141   1.531952   2.530624   3.447706
    13  H    4.518072   3.330060   2.273597   1.087300   2.148884
    14  H    5.637429   4.395649   4.128963   2.672847   2.140878
    15  H    5.208639   4.131376   4.471871   3.331730   2.158324
    16  H    3.209066   2.737698   3.477333   3.388764   2.752680
    17  H    3.915420   3.412994   4.434090   4.069487   2.929699
    18  H    2.588456   2.654964   3.962554   4.234566   3.473135
    19  H    2.751327   2.673337   4.003376   4.245656   3.465076
    20  H    4.016568   3.417791   4.456673   4.067847   2.911374
    21  H    3.396421   2.734038   3.519654   3.389564   2.727051
    22  H    3.385403   2.725786   2.178737   2.726452   3.403256
    23  H    4.041707   3.416732   2.170509   2.858075   4.032354
    24  H    2.802143   2.709042   2.159544   3.452802   4.275625
    25  H    2.652186   2.692841   2.155583   3.455058   4.253940
    26  H    3.945744   3.412924   2.169514   2.871522   4.025385
    27  H    3.211114   2.729641   2.178330   2.731952   3.373623
    28  S    6.532555   5.429258   4.986659   3.739219   3.568830
    29  O    6.165603   5.226357   4.747383   3.852079   3.905853
    30  O    6.702890   5.496491   4.783645   3.401845   3.533138
    31  C    8.230416   7.154756   6.779994   5.511275   5.220475
    32  H    8.347827   7.364906   7.165630   5.994427   5.557959
    33  H    8.791798   7.724711   7.179577   5.968445   5.895775
    34  H    8.675297   7.541248   7.196744   5.817003   5.428261
                    6          7          8          9         10
     6  C    0.000000
     7  S    1.845227   0.000000
     8  C    2.645508   3.659862   0.000000
     9  C    3.305519   3.534688   1.530395   0.000000
    10  C    3.228012   4.476719   1.532569   2.515658   0.000000
    11  C    4.782418   6.188886   3.569384   4.824774   4.159945
    12  C    4.792199   5.493065   3.531599   4.067209   4.821186
    13  H    2.821594   3.941789   3.410683   4.428598   4.424505
    14  H    1.091492   2.392570   3.522913   4.335557   4.043774
    15  H    1.095665   2.346332   2.840514   3.474992   2.893790
    16  H    3.509040   3.386444   2.177075   1.092900   3.474467
    17  H    3.170525   3.105111   2.176315   1.095182   2.741053
    18  H    4.332450   4.604937   2.146843   1.094255   2.761049
    19  H    4.274327   5.371748   2.156126   2.762171   1.095777
    20  H    3.087478   4.144759   2.181062   2.748472   1.095852
    21  H    3.396479   4.956613   2.180132   3.475673   1.094277
    22  H    4.566037   6.181046   3.520134   4.953760   3.728779
    23  H    5.219116   6.579458   4.441359   5.665296   5.121690
    24  H    5.675358   7.014999   4.043596   5.158039   4.541961
    25  H    5.675252   6.390668   3.995846   4.429758   5.149200
    26  H    5.236769   5.937336   4.413557   5.036432   5.675501
    27  H    4.578643   4.919466   3.460145   3.611897   4.916077
    28  S    3.002493   2.139797   4.767066   4.822040   5.903363
    29  O    3.852724   2.990491   4.841773   4.664526   6.209409
    30  O    2.969002   2.951185   4.978315   5.460846   5.973881
    31  C    4.355178   3.046164   6.357722   6.221450   7.378274
    32  H    4.728527   3.106966   6.496069   6.101617   7.526086
    33  H    5.173781   4.020546   7.087842   6.996545   8.197377
    34  H    4.327086   3.174356   6.629654   6.620863   7.467961
                   11         12         13         14         15
    11  C    0.000000
    12  C    2.521002   0.000000
    13  H    2.958921   2.985323   0.000000
    14  H    4.902929   5.113446   2.569602   0.000000
    15  H    5.316111   5.603183   3.757894   1.774122   0.000000
    16  H    4.933632   3.624849   4.239549   4.447317   3.956125
    17  H    5.694751   5.050668   4.948169   4.258700   3.105881
    18  H    5.117003   4.399690   5.267448   5.356439   4.395142
    19  H    4.502699   5.130047   5.275146   5.122533   3.942091
    20  H    5.143424   5.676188   4.942340   3.957929   2.436063
    21  H    3.741874   4.959220   4.235800   3.960532   3.064650
    22  H    1.096157   3.480955   3.175232   4.640552   4.916592
    23  H    1.097101   2.756497   2.891163   5.134617   5.869375
    24  H    1.094520   2.765227   3.985265   5.905114   6.145664
    25  H    2.767228   1.094938   4.005488   6.078124   6.389190
    26  H    2.747740   1.095789   2.926344   5.346302   6.139301
    27  H    3.478141   1.092896   3.203550   5.006777   5.434216
    28  S    6.189834   5.140093   3.433652   2.896769   3.936172
    29  O    6.077974   4.470463   3.669594   3.975135   4.842667
    30  O    5.692865   5.137121   2.738917   2.360941   3.928663
    31  C    7.971232   6.878945   5.149066   4.166483   5.064368
    32  H    8.470578   7.191846   5.798317   4.769571   5.345969
    33  H    8.318842   7.113614   5.463619   4.874105   5.975034
    34  H    8.288227   7.494550   5.420590   3.995571   4.881264
                   16         17         18         19         20
    16  H    0.000000
    17  H    1.775368   0.000000
    18  H    1.779909   1.780371   0.000000
    19  H    3.773501   3.090300   2.555036   0.000000
    20  H    3.748840   2.517669   3.103909   1.774669   0.000000
    21  H    4.325024   3.748017   3.766888   1.777828   1.780996
    22  H    5.266626   5.692987   5.269880   4.135953   4.665649
    23  H    5.637135   6.511797   6.051382   5.554522   6.043782
    24  H    5.289688   6.113722   5.226653   4.628093   5.604442
    25  H    4.060536   5.493403   4.497418   5.233782   6.089966
    26  H    4.535456   5.959297   5.456623   6.075620   6.508225
    27  H    2.925424   4.538695   4.020512   5.252741   5.633235
    28  S    4.282023   4.777639   5.878864   6.810758   5.865115
    29  O    3.848352   4.837732   5.601030   6.964528   6.339525
    30  O    5.079220   5.521422   6.518568   6.965989   6.026233
    31  C    5.679888   5.952485   7.267214   8.294962   7.150646
    32  H    5.518960   5.737697   7.090544   8.365493   7.232596
    33  H    6.356964   6.840043   8.025100   9.109196   8.061752
    34  H    6.235785   6.246179   7.693471   8.444371   7.135027
                   21         22         23         24         25
    21  H    0.000000
    22  H    3.065861   0.000000
    23  H    4.650681   1.781059   0.000000
    24  H    4.194918   1.779553   1.780977   0.000000
    25  H    5.313107   3.773356   3.116159   2.559997   0.000000
    26  H    5.681048   3.755450   2.527597   3.095528   1.783320
    27  H    5.256570   4.327399   3.754492   3.775529   1.780767
    28  S    6.196575   6.417826   6.239719   7.088160   6.174379
    29  O    6.616210   6.540319   6.118818   6.834059   5.427591
    30  O    6.000610   5.818055   5.567505   6.700415   6.226959
    31  C    7.713091   8.156459   7.982890   8.881668   7.896841
    32  H    8.001108   8.687031   8.583337   9.313028   8.143302
    33  H    8.483066   8.590746   8.199826   9.227126   8.138551
    34  H    7.721120   8.336846   8.305832   9.254260   8.535653
                   26         27         28         29         30
    26  H    0.000000
    27  H    1.775522   0.000000
    28  S    5.207890   4.544697   0.000000
    29  O    4.530129   3.683575   1.478765   0.000000
    30  O    5.007710   4.833983   1.483301   2.562705   0.000000
    31  C    6.900688   6.207175   1.794985   2.654752   2.666876
    32  H    7.331394   6.399752   2.374349   2.866236   3.568456
    33  H    6.981843   6.456356   2.335233   2.843837   2.938464
    34  H    7.523662   6.916072   2.375912   3.562682   2.821212
                   31         32         33         34
    31  C    0.000000
    32  H    1.093002   0.000000
    33  H    1.092803   1.797958   0.000000
    34  H    1.089491   1.810431   1.807659   0.000000
 Stoichiometry    C10H18NO3S2(2)
 Framework group  C1[X(C10H18NO3S2)]
 Deg. of freedom    96
 Full point group                 C1      NOp   1
 Largest Abelian subgroup         C1      NOp   1
 Largest concise Abelian subgroup C1      NOp   1
                         Standard orientation:                         
 ---------------------------------------------------------------------
 Center     Atomic      Atomic             Coordinates (Angstroms)
 Number     Number       Type             X           Y           Z
 ---------------------------------------------------------------------
      1          8           0       -3.675967    0.175687    1.027944
      2          7           0       -2.641237    0.049192    0.311639
      3          6           0       -2.172023   -1.263372   -0.175793
      4          6           0       -0.862646   -0.861541   -0.785316
      5          6           0       -0.594457    0.441725   -0.649541
      6          6           0        0.614088    1.121152   -1.192043
      7         16           0        1.949522    1.447080    0.038911
      8          6           0       -1.699384    1.168812    0.090253
      9          6           0       -1.280196    1.748213    1.443281
     10          6           0       -2.382209    2.242984   -0.763369
     11          6           0       -3.156947   -1.820037   -1.206972
     12          6           0       -2.017689   -2.227457    1.004714
     13          1           0       -0.208967   -1.576321   -1.279296
     14          1           0        1.071338    0.534837   -1.991113
     15          1           0        0.391146    2.121100   -1.580481
     16          1           0       -0.745997    1.005073    2.040612
     17          1           0       -0.629560    2.619084    1.310310
     18          1           0       -2.179360    2.058804    1.984052
     19          1           0       -3.293356    2.578924   -0.255746
     20          1           0       -1.728206    3.111473   -0.900841
     21          1           0       -2.656863    1.848804   -1.746543
     22          1           0       -3.255284   -1.141471   -2.062213
     23          1           0       -2.813853   -2.795960   -1.572339
     24          1           0       -4.140922   -1.944613   -0.744103
     25          1           0       -2.984863   -2.339940    1.505525
     26          1           0       -1.683480   -3.209032    0.650356
     27          1           0       -1.286181   -1.852673    1.725030
     28         16           0        2.752787   -0.534907    0.111184
     29          8           0        2.322333   -1.213434    1.352576
     30          8           0        2.498998   -1.172742   -1.203708
     31          6           0        4.509203   -0.191035    0.248034
     32          1           0        4.667514    0.420645    1.139908
     33          1           0        4.986899   -1.167512    0.359907
     34          1           0        4.832359    0.316908   -0.660015
 ---------------------------------------------------------------------
 Rotational constants (GHZ):           0.7721105           0.2775239           0.2435651
 Leave Link  202 at Mon Jun 17 21:19:54 2019, MaxMem=  8053063680 cpu:               0.0 elap:               0.1
 (Enter /data2/g16/g16/l301.exe)
 General basis read from cards:  (6D, 7F)
 Centers:      13     14     15     16     17     18     19     20     21     22
 Centers:      23     24     25     26     27     32     33     34
 6-31G
 S 1 1.00 0.000000000000
     Exponent=  4.0000000000D-01 Coefficients=  1.0000000000D+00
 P 1 1.00 0.000000000000
     Exponent=  7.5000000000D-01 Coefficients=  1.0000000000D+00
 ****
 Centers:       3      4      5      6      8      9     10     11     12     31
 6-31G
 S 1 1.00 0.000000000000
     Exponent=  8.7000000000D+00 Coefficients=  1.0000000000D+00
 P 1 1.00 0.000000000000
     Exponent=  5.0000000000D-02 Coefficients=  1.0000000000D+00
 D 1 1.00
     Exponent=  8.2000000000D-01 Coefficients=  1.0000000000D+00
 ****
 Centers:       2
 6-31G
 S 1 1.00 0.000000000000
     Exponent=  1.3700000000D+01 Coefficients=  1.0000000000D+00
 P 1 1.00 0.000000000000
     Exponent=  5.3000000000D-02 Coefficients=  1.0000000000D+00
 D 1 1.00 0.000000000000
     Exponent=  1.0150000000D+00 Coefficients=  1.0000000000D+00
 ****
 Centers:       1     29     30
 6-31G
 S 1 1.00
     Exponent=  1.6000000000D+01 Coefficients=  1.0000000000D+00
 P 1 1.00 0.000000000000
     Exponent=  6.5000000000D-02 Coefficients=  1.0000000000D+00
 D 1 1.00 0.000000000000
     Exponent=  1.1900000000D+00 Coefficients=  1.0000000000D+00
 D 1 1.00 0.000000000000
     Exponent=  1.8000000000D-01 Coefficients=  1.0000000000D+00
 ****
 Centers:       7     28
 6-31G
 S 1 1.00 0.000000000000
     Exponent=  7.5000000000D+00 Coefficients=  1.0000000000D+00
 P 1 1.00 0.000000000000
     Exponent=  4.1000000000D-02 Coefficients=  1.0000000000D+00
 D 1 1.00 0.000000000000
     Exponent=  4.7900000000D-01 Coefficients=  1.0000000000D+00
 ****
 Ernie: Thresh=  0.10000D-02 Tol=  0.10000D-05 Strict=F.
 There are   438 symmetry adapted cartesian basis functions of A   symmetry.
 There are   438 symmetry adapted basis functions of A   symmetry.
   438 basis functions,   722 primitive gaussians,   438 cartesian basis functions
    71 alpha electrons       70 beta electrons
       nuclear repulsion energy      1521.1769467073 Hartrees.
 IExCor= 1009 DFT=T Ex+Corr=PBE1PBE ExCW=0 ScaHFX=  0.250000
 ScaDFX=  0.750000  0.750000  1.000000  1.000000 ScalE2=  1.000000  1.000000
 IRadAn=      5 IRanWt=     -1 IRanGd=            0 ICorTp=0 IEmpDi=  4
 NAtoms=   34 NActive=   34 NUniq=   34 SFac= 1.00D+00 NAtFMM=   60 NAOKFM=F Big=F
 Integral buffers will be    131072 words long.
 Raffenetti 2 integral format.
 Two-electron integral symmetry is turned on.
 Leave Link  301 at Mon Jun 17 21:19:55 2019, MaxMem=  8053063680 cpu:               0.0 elap:               0.2
 (Enter /data2/g16/g16/l302.exe)
 NPDir=0 NMtPBC=     1 NCelOv=     1 NCel=       1 NClECP=     1 NCelD=      1
         NCelK=      1 NCelE2=     1 NClLst=     1 CellRange=     0.0.
 One-electron integrals computed using PRISM.
 One-electron integral symmetry used in STVInt
 NBasis=   438 RedAO= T EigKep=  6.64D-05  NBF=   438
 NBsUse=   438 1.00D-06 EigRej= -1.00D+00 NBFU=   438
 Precomputing XC quadrature grid using
 IXCGrd= 4 IRadAn=           5 IRanWt=          -1 IRanGd=           0 AccXCQ= 0.00D+00.
 Generated NRdTot=       0 NPtTot=           0 NUsed=           0 NTot=          32
 NSgBfM=   433   433   433   433   433 MxSgAt=    34 MxSgA2=    34.
 Leave Link  302 at Mon Jun 17 21:19:55 2019, MaxMem=  8053063680 cpu:               0.0 elap:               0.5
 (Enter /data2/g16/g16/l303.exe)
 DipDrv:  MaxL=1.
 Leave Link  303 at Mon Jun 17 21:19:55 2019, MaxMem=  8053063680 cpu:               0.0 elap:               0.1
 (Enter /data2/g16/g16/l401.exe)
 ExpMin= 4.10D-02 ExpMax= 2.19D+04 ExpMxC= 3.30D+03 IAcc=3 IRadAn=         5 AccDes= 0.00D+00
 Harris functional with IExCor= 1009 and IRadAn=       5 diagonalized for initial guess.
 HarFok:  IExCor= 1009 AccDes= 0.00D+00 IRadAn=         5 IDoV= 1 UseB2=F ITyADJ=14
 ICtDFT=  3500011 ScaDFX=  1.000000  1.000000  1.000000  1.000000
 FoFCou: FMM=F IPFlag=           0 FMFlag=      100000 FMFlg1=           0
         NFxFlg=           0 DoJE=T BraDBF=F KetDBF=T FulRan=T
         wScrn=  0.000000 ICntrl=       500 IOpCl=  0 I1Cent=   200000004 NGrid=           0
         NMat0=    1 NMatS0=      1 NMatT0=    0 NMatD0=    1 NMtDS0=    0 NMtDT0=    0
 Petite list used in FoFCou.
 Harris En= -1467.69875072187    
 JPrj=0 DoOrth=F DoCkMO=F.
 Initial guess <Sx>= 0.0000 <Sy>= 0.0000 <Sz>= 0.5000 <S**2>= 0.7500 S= 0.5000
 Leave Link  401 at Mon Jun 17 21:19:57 2019, MaxMem=  8053063680 cpu:               0.0 elap:               1.7
 (Enter /data2/g16/g16/l502.exe)
 Integral symmetry usage will be decided dynamically.
 UHF open shell SCF:
 Using DIIS extrapolation, IDIIS=  1040.
 NGot=  8053063680 LenX=  8052670277 LenY=  8052477992
 Requested convergence on RMS density matrix=1.00D-08 within 128 cycles.
 Requested convergence on MAX density matrix=1.00D-06.
 Requested convergence on             energy=1.00D-06.
 No special actions if energy rises.
 Fock matrices will be formed incrementally for  20 cycles.

 Cycle   1  Pass 1  IDiag  1:
 FoFJK:  IHMeth= 1 ICntrl=       0 DoSepK=F KAlg= 0 I1Cent=           0 FoldK=F
 IRaf= 840000000 NMat=       1 IRICut=       1 DoRegI=T DoRafI=F ISym2E= 0 IDoP0=0 IntGTp=1.
 FoFCou: FMM=F IPFlag=           0 FMFlag=      100000 FMFlg1=           0
         NFxFlg=           0 DoJE=F BraDBF=F KetDBF=F FulRan=T
         wScrn=  0.000000 ICntrl=         0 IOpCl=  1 I1Cent=           0 NGrid=           0
         NMat0=    1 NMatS0=      1 NMatT0=    0 NMatD0=    1 NMtDS0=    0 NMtDT0=    0
 Symmetry not used in FoFCou.
 E= -1466.93577636313    
 DIIS: error= 2.55D-02 at cycle   1 NSaved=   1.
 NSaved= 1 IEnMin= 1 EnMin= -1466.93577636313     IErMin= 1 ErrMin= 2.55D-02
 ErrMax= 2.55D-02  0.00D+00 EMaxC= 1.00D-01 BMatC= 2.97D+00 BMatP= 2.97D+00
 IDIUse=3 WtCom= 7.45D-01 WtEn= 2.55D-01
 Coeff-Com:  0.100D+01
 Coeff-En:   0.100D+01
 Coeff:      0.100D+01
 Gap=     0.225 Goal=   None    Shift=    0.000
 Gap=     0.364 Goal=   None    Shift=    0.000
 GapD=    0.225 DampG=1.000 DampE=0.500 DampFc=0.5000 IDamp=-1.
 Damping current iteration by 5.00D-01
 RMSDP=4.75D-03 MaxDP=4.12D-01              OVMax= 3.10D-01

 Cycle   2  Pass 1  IDiag  1:
 RMSU=  2.37D-03    CP:  9.92D-01
 E= -1467.06251970359     Delta-E=       -0.126743340451 Rises=F Damp=T
 DIIS: error= 1.05D-02 at cycle   2 NSaved=   2.
 NSaved= 2 IEnMin= 2 EnMin= -1467.06251970359     IErMin= 2 ErrMin= 1.05D-02
 ErrMax= 1.05D-02  0.00D+00 EMaxC= 1.00D-01 BMatC= 5.21D-01 BMatP= 2.97D+00
 IDIUse=3 WtCom= 8.95D-01 WtEn= 1.05D-01
 Coeff-Com:  0.226D+00 0.774D+00
 Coeff-En:   0.395D+00 0.605D+00
 Coeff:      0.244D+00 0.756D+00
 Gap=     0.127 Goal=   None    Shift=    0.000
 Gap=     0.185 Goal=   None    Shift=    0.000
 RMSDP=1.68D-03 MaxDP=1.19D-01 DE=-1.27D-01 OVMax= 2.88D-01

 Cycle   3  Pass 1  IDiag  1:
 RMSU=  1.39D-03    CP:  9.82D-01  6.10D-01
 E= -1467.46639567149     Delta-E=       -0.403875967903 Rises=F Damp=F
 DIIS: error= 9.76D-03 at cycle   3 NSaved=   3.
 NSaved= 3 IEnMin= 3 EnMin= -1467.46639567149     IErMin= 3 ErrMin= 9.76D-03
 ErrMax= 9.76D-03  0.00D+00 EMaxC= 1.00D-01 BMatC= 3.54D-01 BMatP= 5.21D-01
 IDIUse=3 WtCom= 9.02D-01 WtEn= 9.76D-02
 Coeff-Com:  0.530D-01 0.446D+00 0.501D+00
 Coeff-En:   0.000D+00 0.000D+00 0.100D+01
 Coeff:      0.478D-01 0.402D+00 0.550D+00
 Gap=     0.144 Goal=   None    Shift=    0.000
 Gap=     0.223 Goal=   None    Shift=    0.000
 RMSDP=9.50D-04 MaxDP=6.57D-02 DE=-4.04D-01 OVMax= 1.09D-01

 Cycle   4  Pass 1  IDiag  1:
 RMSU=  6.29D-04    CP:  9.87D-01  7.40D-01  5.41D-01
 E= -1467.53759490736     Delta-E=       -0.071199235873 Rises=F Damp=F
 DIIS: error= 3.02D-03 at cycle   4 NSaved=   4.
 NSaved= 4 IEnMin= 4 EnMin= -1467.53759490736     IErMin= 4 ErrMin= 3.02D-03
 ErrMax= 3.02D-03  0.00D+00 EMaxC= 1.00D-01 BMatC= 4.76D-02 BMatP= 3.54D-01
 IDIUse=3 WtCom= 9.70D-01 WtEn= 3.02D-02
 Coeff-Com: -0.114D-01 0.657D-01 0.287D+00 0.659D+00
 Coeff-En:   0.000D+00 0.000D+00 0.111D+00 0.889D+00
 Coeff:     -0.110D-01 0.637D-01 0.282D+00 0.666D+00
 Gap=     0.144 Goal=   None    Shift=    0.000
 Gap=     0.202 Goal=   None    Shift=    0.000
 RMSDP=3.22D-04 MaxDP=1.86D-02 DE=-7.12D-02 OVMax= 3.38D-02

 Cycle   5  Pass 1  IDiag  1:
 RMSU=  2.01D-04    CP:  9.86D-01  7.23D-01  6.56D-01  7.01D-01
 E= -1467.54755723148     Delta-E=       -0.009962324119 Rises=F Damp=F
 DIIS: error= 7.94D-04 at cycle   5 NSaved=   5.
 NSaved= 5 IEnMin= 5 EnMin= -1467.54755723148     IErMin= 5 ErrMin= 7.94D-04
 ErrMax= 7.94D-04  0.00D+00 EMaxC= 1.00D-01 BMatC= 4.01D-03 BMatP= 4.76D-02
 IDIUse=3 WtCom= 9.92D-01 WtEn= 7.94D-03
 Coeff-Com: -0.837D-02 0.146D-01 0.131D+00 0.370D+00 0.493D+00
 Coeff-En:   0.000D+00 0.000D+00 0.000D+00 0.000D+00 0.100D+01
 Coeff:     -0.831D-02 0.145D-01 0.130D+00 0.367D+00 0.497D+00
 Gap=     0.144 Goal=   None    Shift=    0.000
 Gap=     0.205 Goal=   None    Shift=    0.000
 RMSDP=1.09D-04 MaxDP=5.48D-03 DE=-9.96D-03 OVMax= 1.25D-02

 Cycle   6  Pass 1  IDiag  1:
 RMSU=  6.93D-05    CP:  9.85D-01  7.25D-01  6.52D-01  7.57D-01  6.24D-01
 E= -1467.54842587202     Delta-E=       -0.000868640535 Rises=F Damp=F
 DIIS: error= 2.43D-04 at cycle   6 NSaved=   6.
 NSaved= 6 IEnMin= 6 EnMin= -1467.54842587202     IErMin= 6 ErrMin= 2.43D-04
 ErrMax= 2.43D-04  0.00D+00 EMaxC= 1.00D-01 BMatC= 4.08D-04 BMatP= 4.01D-03
 IDIUse=3 WtCom= 9.98D-01 WtEn= 2.43D-03
 Coeff-Com: -0.278D-02 0.967D-03 0.366D-01 0.116D+00 0.273D+00 0.577D+00
 Coeff-En:   0.000D+00 0.000D+00 0.000D+00 0.000D+00 0.433D-01 0.957D+00
 Coeff:     -0.277D-02 0.965D-03 0.365D-01 0.115D+00 0.272D+00 0.578D+00
 Gap=     0.146 Goal=   None    Shift=    0.000
 Gap=     0.205 Goal=   None    Shift=    0.000
 RMSDP=3.59D-05 MaxDP=2.20D-03 DE=-8.69D-04 OVMax= 5.18D-03

 Cycle   7  Pass 1  IDiag  1:
 RMSU=  2.55D-05    CP:  9.85D-01  7.22D-01  6.58D-01  7.59D-01  6.70D-01
                    CP:  7.00D-01
 E= -1467.54852040473     Delta-E=       -0.000094532712 Rises=F Damp=F
 DIIS: error= 1.22D-04 at cycle   7 NSaved=   7.
 NSaved= 7 IEnMin= 7 EnMin= -1467.54852040473     IErMin= 7 ErrMin= 1.22D-04
 ErrMax= 1.22D-04  0.00D+00 EMaxC= 1.00D-01 BMatC= 6.72D-05 BMatP= 4.08D-04
 IDIUse=3 WtCom= 9.99D-01 WtEn= 1.22D-03
 Coeff-Com: -0.210D-04-0.244D-02-0.269D-02-0.158D-03 0.594D-01 0.329D+00
 Coeff-Com:  0.617D+00
 Coeff-En:   0.000D+00 0.000D+00 0.000D+00 0.000D+00 0.000D+00 0.698D-01
 Coeff-En:   0.930D+00
 Coeff:     -0.210D-04-0.244D-02-0.268D-02-0.158D-03 0.593D-01 0.329D+00
 Coeff:      0.617D+00
 Gap=     0.147 Goal=   None    Shift=    0.000
 Gap=     0.206 Goal=   None    Shift=    0.000
 RMSDP=1.50D-05 MaxDP=9.16D-04 DE=-9.45D-05 OVMax= 1.17D-03

 Cycle   8  Pass 1  IDiag  1:
 RMSU=  1.04D-05    CP:  9.85D-01  7.22D-01  6.58D-01  7.59D-01  7.05D-01
                    CP:  7.97D-01  8.09D-01
 E= -1467.54853669309     Delta-E=       -0.000016288365 Rises=F Damp=F
 DIIS: error= 3.11D-05 at cycle   8 NSaved=   8.
 NSaved= 8 IEnMin= 8 EnMin= -1467.54853669309     IErMin= 8 ErrMin= 3.11D-05
 ErrMax= 3.11D-05  0.00D+00 EMaxC= 1.00D-01 BMatC= 4.70D-06 BMatP= 6.72D-05
 IDIUse=1 WtCom= 1.00D+00 WtEn= 0.00D+00
 Coeff-Com:  0.410D-03-0.109D-02-0.538D-02-0.143D-01-0.164D-01 0.637D-01
 Coeff-Com:  0.212D+00 0.761D+00
 Coeff:      0.410D-03-0.109D-02-0.538D-02-0.143D-01-0.164D-01 0.637D-01
 Coeff:      0.212D+00 0.761D+00
 Gap=     0.146 Goal=   None    Shift=    0.000
 Gap=     0.205 Goal=   None    Shift=    0.000
 RMSDP=4.96D-06 MaxDP=5.42D-04 DE=-1.63D-05 OVMax= 1.23D-03

 Cycle   9  Pass 1  IDiag  1:
 RMSU=  4.06D-06    CP:  9.85D-01  7.22D-01  6.57D-01  7.61D-01  7.04D-01
                    CP:  8.26D-01  8.48D-01  9.23D-01
 E= -1467.54853816659     Delta-E=       -0.000001473497 Rises=F Damp=F
 DIIS: error= 2.55D-05 at cycle   9 NSaved=   9.
 NSaved= 9 IEnMin= 9 EnMin= -1467.54853816659     IErMin= 9 ErrMin= 2.55D-05
 ErrMax= 2.55D-05  0.00D+00 EMaxC= 1.00D-01 BMatC= 2.80D-06 BMatP= 4.70D-06
 IDIUse=1 WtCom= 1.00D+00 WtEn= 0.00D+00
 Coeff-Com:  0.310D-03-0.307D-03-0.289D-02-0.929D-02-0.254D-01-0.280D-01
 Coeff-Com: -0.140D-01 0.481D+00 0.599D+00
 Coeff:      0.310D-03-0.307D-03-0.289D-02-0.929D-02-0.254D-01-0.280D-01
 Coeff:     -0.140D-01 0.481D+00 0.599D+00
 Gap=     0.147 Goal=   None    Shift=    0.000
 Gap=     0.205 Goal=   None    Shift=    0.000
 RMSDP=3.37D-06 MaxDP=2.45D-04 DE=-1.47D-06 OVMax= 2.77D-04

 Cycle  10  Pass 1  IDiag  1:
 RMSU=  2.26D-06    CP:  9.85D-01  7.22D-01  6.57D-01  7.60D-01  7.09D-01
                    CP:  8.44D-01  8.90D-01  1.06D+00  8.77D-01
 E= -1467.54853880332     Delta-E=       -0.000000636727 Rises=F Damp=F
 DIIS: error= 1.33D-05 at cycle  10 NSaved=  10.
 NSaved=10 IEnMin=10 EnMin= -1467.54853880332     IErMin=10 ErrMin= 1.33D-05
 ErrMax= 1.33D-05  0.00D+00 EMaxC= 1.00D-01 BMatC= 5.03D-07 BMatP= 2.80D-06
 IDIUse=1 WtCom= 1.00D+00 WtEn= 0.00D+00
 Coeff-Com:  0.943D-04 0.991D-04-0.131D-03-0.150D-02-0.117D-01-0.308D-01
 Coeff-Com: -0.701D-01 0.108D+00 0.349D+00 0.656D+00
 Coeff:      0.943D-04 0.991D-04-0.131D-03-0.150D-02-0.117D-01-0.308D-01
 Coeff:     -0.701D-01 0.108D+00 0.349D+00 0.656D+00
 Gap=     0.147 Goal=   None    Shift=    0.000
 Gap=     0.205 Goal=   None    Shift=    0.000
 RMSDP=1.53D-06 MaxDP=1.17D-04 DE=-6.37D-07 OVMax= 3.01D-04

 Cycle  11  Pass 1  IDiag  1:
 RMSU=  9.40D-07    CP:  9.85D-01  7.22D-01  6.57D-01  7.60D-01  7.09D-01
                    CP:  8.50D-01  8.95D-01  1.15D+00  9.95D-01  8.41D-01
 E= -1467.54853895280     Delta-E=       -0.000000149478 Rises=F Damp=F
 DIIS: error= 6.42D-06 at cycle  11 NSaved=  11.
 NSaved=11 IEnMin=11 EnMin= -1467.54853895280     IErMin=11 ErrMin= 6.42D-06
 ErrMax= 6.42D-06  0.00D+00 EMaxC= 1.00D-01 BMatC= 1.05D-07 BMatP= 5.03D-07
 IDIUse=1 WtCom= 1.00D+00 WtEn= 0.00D+00
 Coeff-Com:  0.119D-05 0.767D-04 0.446D-03 0.867D-03-0.195D-02-0.101D-01
 Coeff-Com: -0.361D-01-0.228D-01 0.590D-01 0.361D+00 0.649D+00
 Coeff:      0.119D-05 0.767D-04 0.446D-03 0.867D-03-0.195D-02-0.101D-01
 Coeff:     -0.361D-01-0.228D-01 0.590D-01 0.361D+00 0.649D+00
 Gap=     0.147 Goal=   None    Shift=    0.000
 Gap=     0.205 Goal=   None    Shift=    0.000
 RMSDP=6.48D-07 MaxDP=4.23D-05 DE=-1.49D-07 OVMax= 1.06D-04

 Cycle  12  Pass 1  IDiag  1:
 RMSU=  4.36D-07    CP:  9.85D-01  7.22D-01  6.57D-01  7.60D-01  7.08D-01
                    CP:  8.52D-01  8.93D-01  1.16D+00  1.05D+00  9.87D-01
                    CP:  8.10D-01
 E= -1467.54853897851     Delta-E=       -0.000000025715 Rises=F Damp=F
 DIIS: error= 2.40D-06 at cycle  12 NSaved=  12.
 NSaved=12 IEnMin=12 EnMin= -1467.54853897851     IErMin=12 ErrMin= 2.40D-06
 ErrMax= 2.40D-06  0.00D+00 EMaxC= 1.00D-01 BMatC= 2.46D-08 BMatP= 1.05D-07
 IDIUse=1 WtCom= 1.00D+00 WtEn= 0.00D+00
 Coeff-Com: -0.111D-04 0.228D-04 0.299D-03 0.764D-03 0.582D-03-0.121D-02
 Coeff-Com: -0.117D-01-0.330D-01-0.302D-01 0.114D+00 0.402D+00 0.558D+00
 Coeff:     -0.111D-04 0.228D-04 0.299D-03 0.764D-03 0.582D-03-0.121D-02
 Coeff:     -0.117D-01-0.330D-01-0.302D-01 0.114D+00 0.402D+00 0.558D+00
 Gap=     0.147 Goal=   None    Shift=    0.000
 Gap=     0.205 Goal=   None    Shift=    0.000
 RMSDP=2.90D-07 MaxDP=2.00D-05 DE=-2.57D-08 OVMax= 2.45D-05

 Cycle  13  Pass 1  IDiag  1:
 RMSU=  1.87D-07    CP:  9.85D-01  7.22D-01  6.57D-01  7.60D-01  7.08D-01
                    CP:  8.53D-01  8.94D-01  1.17D+00  1.07D+00  1.05D+00
                    CP:  9.20D-01  8.33D-01
 E= -1467.54853898393     Delta-E=       -0.000000005423 Rises=F Damp=F
 DIIS: error= 1.09D-06 at cycle  13 NSaved=  13.
 NSaved=13 IEnMin=13 EnMin= -1467.54853898393     IErMin=13 ErrMin= 1.09D-06
 ErrMax= 1.09D-06  0.00D+00 EMaxC= 1.00D-01 BMatC= 4.41D-09 BMatP= 2.46D-08
 IDIUse=1 WtCom= 1.00D+00 WtEn= 0.00D+00
 Coeff-Com: -0.355D-05-0.104D-04 0.607D-04 0.204D-03 0.880D-03 0.267D-02
 Coeff-Com:  0.364D-02-0.994D-02-0.354D-01-0.296D-01 0.635D-01 0.327D+00
 Coeff-Com:  0.677D+00
 Coeff:     -0.355D-05-0.104D-04 0.607D-04 0.204D-03 0.880D-03 0.267D-02
 Coeff:      0.364D-02-0.994D-02-0.354D-01-0.296D-01 0.635D-01 0.327D+00
 Coeff:      0.677D+00
 Gap=     0.147 Goal=   None    Shift=    0.000
 Gap=     0.205 Goal=   None    Shift=    0.000
 RMSDP=1.23D-07 MaxDP=1.19D-05 DE=-5.42D-09 OVMax= 2.03D-05

 Cycle  14  Pass 1  IDiag  1:
 RMSU=  1.02D-07    CP:  9.85D-01  7.22D-01  6.57D-01  7.60D-01  7.08D-01
                    CP:  8.53D-01  8.94D-01  1.17D+00  1.07D+00  1.06D+00
                    CP:  9.51D-01  8.62D-01  8.40D-01
 E= -1467.54853898513     Delta-E=       -0.000000001195 Rises=F Damp=F
 DIIS: error= 5.40D-07 at cycle  14 NSaved=  14.
 NSaved=14 IEnMin=14 EnMin= -1467.54853898513     IErMin=14 ErrMin= 5.40D-07
 ErrMax= 5.40D-07  0.00D+00 EMaxC= 1.00D-01 BMatC= 8.75D-10 BMatP= 4.41D-09
 IDIUse=1 WtCom= 1.00D+00 WtEn= 0.00D+00
 Coeff-Com:  0.506D-06-0.117D-04-0.274D-04-0.433D-04 0.338D-03 0.164D-02
 Coeff-Com:  0.409D-02 0.157D-02-0.134D-01-0.393D-01-0.554D-01 0.411D-01
 Coeff-Com:  0.369D+00 0.691D+00
 Coeff:      0.506D-06-0.117D-04-0.274D-04-0.433D-04 0.338D-03 0.164D-02
 Coeff:      0.409D-02 0.157D-02-0.134D-01-0.393D-01-0.554D-01 0.411D-01
 Coeff:      0.369D+00 0.691D+00
 Gap=     0.147 Goal=   None    Shift=    0.000
 Gap=     0.205 Goal=   None    Shift=    0.000
 RMSDP=7.24D-08 MaxDP=4.69D-06 DE=-1.19D-09 OVMax= 5.87D-06

 Cycle  15  Pass 1  IDiag  1:
 RMSU=  3.41D-08    CP:  9.85D-01  7.22D-01  6.57D-01  7.60D-01  7.08D-01
                    CP:  8.53D-01  8.93D-01  1.17D+00  1.07D+00  1.07D+00
                    CP:  9.76D-01  9.45D-01  9.77D-01  7.84D-01
 E= -1467.54853898540     Delta-E=       -0.000000000268 Rises=F Damp=F
 DIIS: error= 1.28D-07 at cycle  15 NSaved=  15.
 NSaved=15 IEnMin=15 EnMin= -1467.54853898540     IErMin=15 ErrMin= 1.28D-07
 ErrMax= 1.28D-07  0.00D+00 EMaxC= 1.00D-01 BMatC= 5.76D-11 BMatP= 8.75D-10
 IDIUse=1 WtCom= 1.00D+00 WtEn= 0.00D+00
 Coeff-Com:  0.678D-06-0.206D-05-0.199D-04-0.468D-04-0.850D-05 0.221D-03
 Coeff-Com:  0.876D-03 0.215D-02 0.132D-03-0.836D-02-0.288D-01-0.341D-01
 Coeff-Com:  0.394D-01 0.225D+00 0.804D+00
 Coeff:      0.678D-06-0.206D-05-0.199D-04-0.468D-04-0.850D-05 0.221D-03
 Coeff:      0.876D-03 0.215D-02 0.132D-03-0.836D-02-0.288D-01-0.341D-01
 Coeff:      0.394D-01 0.225D+00 0.804D+00
 Gap=     0.147 Goal=   None    Shift=    0.000
 Gap=     0.205 Goal=   None    Shift=    0.000
 RMSDP=1.98D-08 MaxDP=1.21D-06 DE=-2.68D-10 OVMax= 1.83D-06

 Cycle  16  Pass 1  IDiag  1:
 RMSU=  1.35D-08    CP:  9.85D-01  7.22D-01  6.57D-01  7.60D-01  7.08D-01
                    CP:  8.53D-01  8.93D-01  1.17D+00  1.07D+00  1.07D+00
                    CP:  9.74D-01  9.53D-01  1.01D+00  8.75D-01  9.05D-01
 E= -1467.54853898533     Delta-E=        0.000000000068 Rises=F Damp=F
 DIIS: error= 4.50D-08 at cycle  16 NSaved=  16.
 NSaved=16 IEnMin=15 EnMin= -1467.54853898540     IErMin=16 ErrMin= 4.50D-08
 ErrMax= 4.50D-08  0.00D+00 EMaxC= 1.00D-01 BMatC= 1.09D-11 BMatP= 5.76D-11
 IDIUse=1 WtCom= 1.00D+00 WtEn= 0.00D+00
 Coeff-Com:  0.651D-07 0.106D-05-0.410D-05-0.112D-04-0.525D-04-0.145D-03
 Coeff-Com: -0.247D-03 0.636D-03 0.191D-02 0.254D-02-0.351D-02-0.202D-01
 Coeff-Com: -0.339D-01-0.173D-01 0.322D+00 0.748D+00
 Coeff:      0.651D-07 0.106D-05-0.410D-05-0.112D-04-0.525D-04-0.145D-03
 Coeff:     -0.247D-03 0.636D-03 0.191D-02 0.254D-02-0.351D-02-0.202D-01
 Coeff:     -0.339D-01-0.173D-01 0.322D+00 0.748D+00
 Gap=     0.147 Goal=   None    Shift=    0.000
 Gap=     0.205 Goal=   None    Shift=    0.000
 RMSDP=7.96D-09 MaxDP=4.24D-07 DE= 6.82D-11 OVMax= 8.30D-07

 SCF Done:  E(UPBE1PBE) =  -1467.54853899     A.U. after   16 cycles
            NFock= 16  Conv=0.80D-08     -V/T= 2.0052
 <Sx>= 0.0000 <Sy>= 0.0000 <Sz>= 0.5000 <S**2>= 0.7550 S= 0.5025
 <L.S>=  0.00000000000    
 KE= 1.459899077050D+03 PE=-6.497766287232D+03 EE= 2.049141724489D+03
 Annihilation of the first spin contaminant:
 S**2 before annihilation     0.7550,   after     0.7500
 Leave Link  502 at Mon Jun 17 21:22:34 2019, MaxMem=  8053063680 cpu:               0.0 elap:             157.1
 (Enter /data2/g16/g16/l601.exe)
 Copying SCF densities to generalized density rwf, IOpCl= 1 IROHF=0.

 **********************************************************************

            Population analysis using the SCF Density.

 **********************************************************************

 Orbital symmetries:
 Alpha Orbitals:
       Occupied  (A) (A) (A) (A) (A) (A) (A) (A) (A) (A) (A) (A)
                 (A) (A) (A) (A) (A) (A) (A) (A) (A) (A) (A) (A)
                 (A) (A) (A) (A) (A) (A) (A) (A) (A) (A) (A) (A)
                 (A) (A) (A) (A) (A) (A) (A) (A) (A) (A) (A) (A)
                 (A) (A) (A) (A) (A) (A) (A) (A) (A) (A) (A) (A)
                 (A) (A) (A) (A) (A) (A) (A) (A) (A) (A) (A)
       Virtual   (A) (A) (A) (A) (A) (A) (A) (A) (A) (A) (A) (A)
                 (A) (A) (A) (A) (A) (A) (A) (A) (A) (A) (A) (A)
                 (A) (A) (A) (A) (A) (A) (A) (A) (A) (A) (A) (A)
                 (A) (A) (A) (A) (A) (A) (A) (A) (A) (A) (A) (A)
                 (A) (A) (A) (A) (A) (A) (A) (A) (A) (A) (A) (A)
                 (A) (A) (A) (A) (A) (A) (A) (A) (A) (A) (A) (A)
                 (A) (A) (A) (A) (A) (A) (A) (A) (A) (A) (A) (A)
                 (A) (A) (A) (A) (A) (A) (A) (A) (A) (A) (A) (A)
                 (A) (A) (A) (A) (A) (A) (A) (A) (A) (A) (A) (A)
                 (A) (A) (A) (A) (A) (A) (A) (A) (A) (A) (A) (A)
                 (A) (A) (A) (A) (A) (A) (A) (A) (A) (A) (A) (A)
                 (A) (A) (A) (A) (A) (A) (A) (A) (A) (A) (A) (A)
                 (A) (A) (A) (A) (A) (A) (A) (A) (A) (A) (A) (A)
                 (A) (A) (A) (A) (A) (A) (A) (A) (A) (A) (A) (A)
                 (A) (A) (A) (A) (A) (A) (A) (A) (A) (A) (A) (A)
                 (A) (A) (A) (A) (A) (A) (A) (A) (A) (A) (A) (A)
                 (A) (A) (A) (A) (A) (A) (A) (A) (A) (A) (A) (A)
                 (A) (A) (A) (A) (A) (A) (A) (A) (A) (A) (A) (A)
                 (A) (A) (A) (A) (A) (A) (A) (A) (A) (A) (A) (A)
                 (A) (A) (A) (A) (A) (A) (A) (A) (A) (A) (A) (A)
                 (A) (A) (A) (A) (A) (A) (A) (A) (A) (A) (A) (A)
                 (A) (A) (A) (A) (A) (A) (A) (A) (A) (A) (A) (A)
                 (A) (A) (A) (A) (A) (A) (A) (A) (A) (A) (A) (A)
                 (A) (A) (A) (A) (A) (A) (A) (A) (A) (A) (A) (A)
                 (A) (A) (A) (A) (A) (A) (A) (A) (A) (A) (A) (A)
                 (A) (A) (A) (A) (A) (A) (A) (A) (A) (A) (A) (A)
                 (A) (A) (A) (A) (A) (A) (A) (A) (A) (A) (A) (A)
                 (A) (A) (A) (A) (A) (A) (A) (A) (A) (A) (A) (A)
                 (A) (A) (A) (A) (A) (A) (A) (A) (A) (A) (A) (A)
                 (A) (A) (A) (A) (A) (A) (A) (A) (A) (A) (A) (A)
                 (A) (A) (A) (A) (A) (A) (A)
 Beta  Orbitals:
       Occupied  (A) (A) (A) (A) (A) (A) (A) (A) (A) (A) (A) (A)
                 (A) (A) (A) (A) (A) (A) (A) (A) (A) (A) (A) (A)
                 (A) (A) (A) (A) (A) (A) (A) (A) (A) (A) (A) (A)
                 (A) (A) (A) (A) (A) (A) (A) (A) (A) (A) (A) (A)
                 (A) (A) (A) (A) (A) (A) (A) (A) (A) (A) (A) (A)
                 (A) (A) (A) (A) (A) (A) (A) (A) (A) (A)
       Virtual   (A) (A) (A) (A) (A) (A) (A) (A) (A) (A) (A) (A)
                 (A) (A) (A) (A) (A) (A) (A) (A) (A) (A) (A) (A)
                 (A) (A) (A) (A) (A) (A) (A) (A) (A) (A) (A) (A)
                 (A) (A) (A) (A) (A) (A) (A) (A) (A) (A) (A) (A)
                 (A) (A) (A) (A) (A) (A) (A) (A) (A) (A) (A) (A)
                 (A) (A) (A) (A) (A) (A) (A) (A) (A) (A) (A) (A)
                 (A) (A) (A) (A) (A) (A) (A) (A) (A) (A) (A) (A)
                 (A) (A) (A) (A) (A) (A) (A) (A) (A) (A) (A) (A)
                 (A) (A) (A) (A) (A) (A) (A) (A) (A) (A) (A) (A)
                 (A) (A) (A) (A) (A) (A) (A) (A) (A) (A) (A) (A)
                 (A) (A) (A) (A) (A) (A) (A) (A) (A) (A) (A) (A)
                 (A) (A) (A) (A) (A) (A) (A) (A) (A) (A) (A) (A)
                 (A) (A) (A) (A) (A) (A) (A) (A) (A) (A) (A) (A)
                 (A) (A) (A) (A) (A) (A) (A) (A) (A) (A) (A) (A)
                 (A) (A) (A) (A) (A) (A) (A) (A) (A) (A) (A) (A)
                 (A) (A) (A) (A) (A) (A) (A) (A) (A) (A) (A) (A)
                 (A) (A) (A) (A) (A) (A) (A) (A) (A) (A) (A) (A)
                 (A) (A) (A) (A) (A) (A) (A) (A) (A) (A) (A) (A)
                 (A) (A) (A) (A) (A) (A) (A) (A) (A) (A) (A) (A)
                 (A) (A) (A) (A) (A) (A) (A) (A) (A) (A) (A) (A)
                 (A) (A) (A) (A) (A) (A) (A) (A) (A) (A) (A) (A)
                 (A) (A) (A) (A) (A) (A) (A) (A) (A) (A) (A) (A)
                 (A) (A) (A) (A) (A) (A) (A) (A) (A) (A) (A) (A)
                 (A) (A) (A) (A) (A) (A) (A) (A) (A) (A) (A) (A)
                 (A) (A) (A) (A) (A) (A) (A) (A) (A) (A) (A) (A)
                 (A) (A) (A) (A) (A) (A) (A) (A) (A) (A) (A) (A)
                 (A) (A) (A) (A) (A) (A) (A) (A) (A) (A) (A) (A)
                 (A) (A) (A) (A) (A) (A) (A) (A) (A) (A) (A) (A)
                 (A) (A) (A) (A) (A) (A) (A) (A) (A) (A) (A) (A)
                 (A) (A) (A) (A) (A) (A) (A) (A) (A) (A) (A) (A)
                 (A) (A) (A) (A) (A) (A) (A) (A)
 The electronic state is 2-A.
 Alpha  occ. eigenvalues --  -89.28802 -89.08191 -19.24747 -19.24223 -19.22616
 Alpha  occ. eigenvalues --  -14.48508 -10.29739 -10.29700 -10.29118 -10.28710
 Alpha  occ. eigenvalues --  -10.26127 -10.24856 -10.23313 -10.22835 -10.22574
 Alpha  occ. eigenvalues --  -10.22319  -8.22121  -8.04434  -6.15844  -6.15800
 Alpha  occ. eigenvalues --   -6.15685  -5.98275  -5.97899  -5.97175  -1.14716
 Alpha  occ. eigenvalues --   -1.13593  -1.04478  -0.93300  -0.85925  -0.84034
 Alpha  occ. eigenvalues --   -0.82245  -0.77238  -0.74910  -0.72103  -0.71236
 Alpha  occ. eigenvalues --   -0.70587  -0.64475  -0.62459  -0.58981  -0.56420
 Alpha  occ. eigenvalues --   -0.53156  -0.51829  -0.51304  -0.50750  -0.50228
 Alpha  occ. eigenvalues --   -0.48515  -0.47411  -0.46361  -0.46179  -0.45136
 Alpha  occ. eigenvalues --   -0.44654  -0.43964  -0.42783  -0.42446  -0.41669
 Alpha  occ. eigenvalues --   -0.40510  -0.40087  -0.39075  -0.38883  -0.36502
 Alpha  occ. eigenvalues --   -0.36365  -0.36183  -0.35749  -0.35656  -0.34543
 Alpha  occ. eigenvalues --   -0.33587  -0.31776  -0.28318  -0.27219  -0.26893
 Alpha  occ. eigenvalues --   -0.20110
 Alpha virt. eigenvalues --   -0.05448  -0.02451   0.00469   0.01072   0.02633
 Alpha virt. eigenvalues --    0.03412   0.03694   0.04583   0.04815   0.04990
 Alpha virt. eigenvalues --    0.05448   0.05805   0.06161   0.06288   0.06853
 Alpha virt. eigenvalues --    0.07843   0.08240   0.08372   0.09038   0.09327
 Alpha virt. eigenvalues --    0.09391   0.09655   0.10357   0.10765   0.11011
 Alpha virt. eigenvalues --    0.11376   0.11829   0.12670   0.13022   0.13694
 Alpha virt. eigenvalues --    0.14032   0.14405   0.14713   0.15027   0.15545
 Alpha virt. eigenvalues --    0.15983   0.16649   0.16763   0.16938   0.17747
 Alpha virt. eigenvalues --    0.18387   0.18718   0.19265   0.19437   0.19651
 Alpha virt. eigenvalues --    0.19993   0.20875   0.21247   0.22037   0.22541
 Alpha virt. eigenvalues --    0.23192   0.23229   0.24000   0.24646   0.25430
 Alpha virt. eigenvalues --    0.26125   0.26328   0.26729   0.27140   0.27727
 Alpha virt. eigenvalues --    0.27998   0.28409   0.29095   0.29234   0.29825
 Alpha virt. eigenvalues --    0.30413   0.30594   0.31479   0.31709   0.31798
 Alpha virt. eigenvalues --    0.32273   0.32964   0.33517   0.34549   0.34988
 Alpha virt. eigenvalues --    0.35595   0.36811   0.37740   0.38134   0.40466
 Alpha virt. eigenvalues --    0.41759   0.41954   0.42271   0.43483   0.44250
 Alpha virt. eigenvalues --    0.46130   0.47107   0.47567   0.48092   0.50227
 Alpha virt. eigenvalues --    0.50722   0.50927   0.51825   0.51939   0.52855
 Alpha virt. eigenvalues --    0.53588   0.53991   0.54546   0.55465   0.56158
 Alpha virt. eigenvalues --    0.57088   0.58072   0.58178   0.59852   0.60520
 Alpha virt. eigenvalues --    0.60936   0.61900   0.62701   0.63141   0.63813
 Alpha virt. eigenvalues --    0.64230   0.64895   0.65359   0.65890   0.66650
 Alpha virt. eigenvalues --    0.67834   0.68093   0.68706   0.70027   0.71015
 Alpha virt. eigenvalues --    0.72096   0.72833   0.73164   0.73877   0.74214
 Alpha virt. eigenvalues --    0.74778   0.75884   0.76473   0.77239   0.78407
 Alpha virt. eigenvalues --    0.79041   0.79813   0.80807   0.81888   0.82161
 Alpha virt. eigenvalues --    0.82587   0.83201   0.83830   0.84872   0.85676
 Alpha virt. eigenvalues --    0.86003   0.87067   0.87957   0.88394   0.88703
 Alpha virt. eigenvalues --    0.89213   0.89832   0.90423   0.90996   0.91232
 Alpha virt. eigenvalues --    0.91580   0.92972   0.94224   0.94846   0.95431
 Alpha virt. eigenvalues --    0.96364   0.97417   0.97950   0.98054   0.99598
 Alpha virt. eigenvalues --    0.99769   1.01889   1.02216   1.03472   1.04540
 Alpha virt. eigenvalues --    1.04642   1.07791   1.08624   1.09157   1.11956
 Alpha virt. eigenvalues --    1.12550   1.14627   1.15051   1.15885   1.16872
 Alpha virt. eigenvalues --    1.18644   1.20275   1.21789   1.22270   1.23592
 Alpha virt. eigenvalues --    1.25528   1.28849   1.30092   1.31557   1.31720
 Alpha virt. eigenvalues --    1.36465   1.37820   1.39576   1.40110   1.41428
 Alpha virt. eigenvalues --    1.44337   1.45410   1.45917   1.48027   1.48812
 Alpha virt. eigenvalues --    1.49157   1.50337   1.51489   1.52990   1.55924
 Alpha virt. eigenvalues --    1.57564   1.59467   1.62538   1.63117   1.63293
 Alpha virt. eigenvalues --    1.65642   1.65937   1.66971   1.68116   1.68442
 Alpha virt. eigenvalues --    1.69324   1.71046   1.72246   1.73203   1.74956
 Alpha virt. eigenvalues --    1.75630   1.76446   1.77627   1.78794   1.79226
 Alpha virt. eigenvalues --    1.79741   1.80579   1.80974   1.81807   1.82583
 Alpha virt. eigenvalues --    1.83940   1.84407   1.85111   1.85945   1.87162
 Alpha virt. eigenvalues --    1.88067   1.89647   1.90995   1.92944   1.94148
 Alpha virt. eigenvalues --    1.95319   1.95875   1.97929   1.98240   1.98862
 Alpha virt. eigenvalues --    1.99467   2.02286   2.03132   2.04318   2.05652
 Alpha virt. eigenvalues --    2.06438   2.07261   2.10379   2.12397   2.13453
 Alpha virt. eigenvalues --    2.14900   2.16279   2.16905   2.23950   2.26052
 Alpha virt. eigenvalues --    2.27893   2.28655   2.31749   2.32951   2.34304
 Alpha virt. eigenvalues --    2.36751   2.38757   2.39413   2.40054   2.41061
 Alpha virt. eigenvalues --    2.42862   2.44875   2.47365   2.48737   2.49719
 Alpha virt. eigenvalues --    2.53748   2.54655   2.54858   2.58042   2.58929
 Alpha virt. eigenvalues --    2.60581   2.63942   2.65298   2.66064   2.67466
 Alpha virt. eigenvalues --    2.70704   2.75293   2.75835   2.77527   2.80623
 Alpha virt. eigenvalues --    2.82468   2.82692   2.83201   2.83314   2.84196
 Alpha virt. eigenvalues --    2.84397   2.85316   2.86552   2.87001   2.87996
 Alpha virt. eigenvalues --    2.88380   2.89641   2.90929   2.93186   2.93620
 Alpha virt. eigenvalues --    2.94577   2.95541   2.96841   2.97882   2.98405
 Alpha virt. eigenvalues --    2.99286   3.02613   3.03528   3.03946   3.06707
 Alpha virt. eigenvalues --    3.08104   3.15675   3.18273   3.19639   3.20589
 Alpha virt. eigenvalues --    3.26177   3.28218   3.29741   3.31220   3.31491
 Alpha virt. eigenvalues --    3.34457   3.35829   3.37350   3.38365   3.41503
 Alpha virt. eigenvalues --    3.42045   3.42976   3.45167   3.48196   3.49931
 Alpha virt. eigenvalues --    3.53769   3.56388   3.59683   3.63722   3.64715
 Alpha virt. eigenvalues --    3.76336   3.94694   4.47196   4.57465   4.62172
 Alpha virt. eigenvalues --    4.64291   4.72436   4.73833   4.74718   4.86552
 Alpha virt. eigenvalues --    4.91312   5.03116   5.44635   5.81776   5.84472
 Alpha virt. eigenvalues --    6.08178  22.21642  22.63375  58.49217  58.49252
 Alpha virt. eigenvalues --   58.50386  58.50656  58.50892  58.55595  58.56066
 Alpha virt. eigenvalues --   58.56347  58.56630  58.56828  95.61802 106.32251
 Alpha virt. eigenvalues --  106.33253 106.39158
  Beta  occ. eigenvalues --  -89.28802 -89.08191 -19.24747 -19.24223 -19.21185
  Beta  occ. eigenvalues --  -14.47318 -10.29741 -10.29700 -10.29183 -10.28774
  Beta  occ. eigenvalues --  -10.26125 -10.24853 -10.23262 -10.22783 -10.22526
  Beta  occ. eigenvalues --  -10.22269  -8.22121  -8.04434  -6.15844  -6.15800
  Beta  occ. eigenvalues --   -6.15685  -5.98274  -5.97898  -5.97175  -1.14716
  Beta  occ. eigenvalues --   -1.10962  -1.04478  -0.92350  -0.85734  -0.83931
  Beta  occ. eigenvalues --   -0.82113  -0.77043  -0.73842  -0.71851  -0.71107
  Beta  occ. eigenvalues --   -0.70130  -0.64422  -0.62331  -0.58604  -0.55911
  Beta  occ. eigenvalues --   -0.53065  -0.51822  -0.51017  -0.50414  -0.48345
  Beta  occ. eigenvalues --   -0.47529  -0.47182  -0.46344  -0.46114  -0.44981
  Beta  occ. eigenvalues --   -0.44271  -0.43809  -0.42507  -0.41650  -0.41197
  Beta  occ. eigenvalues --   -0.40205  -0.40031  -0.38743  -0.37671  -0.36324
  Beta  occ. eigenvalues --   -0.36126  -0.35719  -0.35697  -0.34515  -0.33584
  Beta  occ. eigenvalues --   -0.32741  -0.31771  -0.28238  -0.26721  -0.25997
  Beta virt. eigenvalues --   -0.05450  -0.03772  -0.02413   0.00482   0.01077
  Beta virt. eigenvalues --    0.02655   0.03439   0.03732   0.04624   0.04906
  Beta virt. eigenvalues --    0.05021   0.05473   0.05848   0.06189   0.06314
  Beta virt. eigenvalues --    0.06920   0.07861   0.08296   0.08447   0.09064
  Beta virt. eigenvalues --    0.09367   0.09514   0.09716   0.10402   0.10814
  Beta virt. eigenvalues --    0.11031   0.11434   0.11926   0.12785   0.13109
  Beta virt. eigenvalues --    0.13752   0.14092   0.14445   0.14804   0.15085
  Beta virt. eigenvalues --    0.15873   0.16073   0.16695   0.16999   0.17198
  Beta virt. eigenvalues --    0.17884   0.18434   0.18824   0.19386   0.19602
  Beta virt. eigenvalues --    0.19794   0.20198   0.21019   0.21364   0.22132
  Beta virt. eigenvalues --    0.22708   0.23263   0.23306   0.24148   0.24957
  Beta virt. eigenvalues --    0.25581   0.26234   0.26415   0.26838   0.27236
  Beta virt. eigenvalues --    0.27774   0.28122   0.28557   0.29144   0.29380
  Beta virt. eigenvalues --    0.30219   0.30596   0.30957   0.31605   0.31879
  Beta virt. eigenvalues --    0.32081   0.32571   0.33050   0.33603   0.34621
  Beta virt. eigenvalues --    0.35099   0.35797   0.36846   0.37816   0.38222
  Beta virt. eigenvalues --    0.40503   0.41821   0.42005   0.42718   0.43518
  Beta virt. eigenvalues --    0.44426   0.46197   0.47240   0.47596   0.48133
  Beta virt. eigenvalues --    0.50335   0.50872   0.51036   0.51926   0.52034
  Beta virt. eigenvalues --    0.52896   0.53702   0.54106   0.54697   0.55528
  Beta virt. eigenvalues --    0.56238   0.57178   0.58143   0.58358   0.59954
  Beta virt. eigenvalues --    0.60636   0.61068   0.61932   0.62735   0.63317
  Beta virt. eigenvalues --    0.63958   0.64309   0.64958   0.65522   0.66053
  Beta virt. eigenvalues --    0.66726   0.67887   0.68396   0.68837   0.70267
  Beta virt. eigenvalues --    0.71274   0.72151   0.72940   0.73220   0.73958
  Beta virt. eigenvalues --    0.74439   0.74812   0.76007   0.76529   0.77312
  Beta virt. eigenvalues --    0.78607   0.79131   0.79999   0.80928   0.82080
  Beta virt. eigenvalues --    0.82246   0.82682   0.83269   0.83899   0.84939
  Beta virt. eigenvalues --    0.85752   0.86090   0.87177   0.87987   0.88458
  Beta virt. eigenvalues --    0.88741   0.89249   0.89894   0.90536   0.91072
  Beta virt. eigenvalues --    0.91302   0.91768   0.93132   0.94425   0.94946
  Beta virt. eigenvalues --    0.95492   0.96523   0.97559   0.98054   0.99317
  Beta virt. eigenvalues --    0.99649   0.99948   1.02117   1.02279   1.03591
  Beta virt. eigenvalues --    1.04636   1.04813   1.07844   1.08669   1.09348
  Beta virt. eigenvalues --    1.12332   1.12708   1.14652   1.15105   1.16053
  Beta virt. eigenvalues --    1.17130   1.18959   1.20620   1.22222   1.23362
  Beta virt. eigenvalues --    1.24060   1.26034   1.29304   1.30627   1.31785
  Beta virt. eigenvalues --    1.32299   1.36846   1.38146   1.39639   1.40185
  Beta virt. eigenvalues --    1.41493   1.44369   1.45607   1.46183   1.48225
  Beta virt. eigenvalues --    1.48912   1.49242   1.50388   1.51589   1.53021
  Beta virt. eigenvalues --    1.56102   1.57646   1.59581   1.62566   1.63138
  Beta virt. eigenvalues --    1.63314   1.65991   1.66131   1.67545   1.68298
  Beta virt. eigenvalues --    1.68456   1.69609   1.71110   1.72293   1.73318
  Beta virt. eigenvalues --    1.75040   1.75696   1.76571   1.77663   1.78850
  Beta virt. eigenvalues --    1.79271   1.79816   1.80664   1.81021   1.81869
  Beta virt. eigenvalues --    1.82723   1.84074   1.84480   1.85204   1.86084
  Beta virt. eigenvalues --    1.87303   1.88177   1.89760   1.91247   1.93106
  Beta virt. eigenvalues --    1.94244   1.95330   1.95899   1.98128   1.98409
  Beta virt. eigenvalues --    1.99144   1.99720   2.02610   2.03418   2.04516
  Beta virt. eigenvalues --    2.06032   2.06854   2.07665   2.10741   2.12832
  Beta virt. eigenvalues --    2.13581   2.15186   2.16326   2.17336   2.24778
  Beta virt. eigenvalues --    2.26111   2.28065   2.29792   2.31872   2.33040
  Beta virt. eigenvalues --    2.34432   2.36842   2.38761   2.39416   2.40231
  Beta virt. eigenvalues --    2.41385   2.43120   2.44979   2.47531   2.49256
  Beta virt. eigenvalues --    2.49872   2.53927   2.54935   2.55962   2.58530
  Beta virt. eigenvalues --    2.59030   2.60635   2.64029   2.65404   2.66132
  Beta virt. eigenvalues --    2.68334   2.70872   2.75405   2.76219   2.77753
  Beta virt. eigenvalues --    2.80844   2.82482   2.82721   2.83261   2.84208
  Beta virt. eigenvalues --    2.84292   2.85357   2.85904   2.86970   2.87278
  Beta virt. eigenvalues --    2.88282   2.89616   2.89776   2.91188   2.93226
  Beta virt. eigenvalues --    2.94644   2.95468   2.95780   2.96967   2.98101
  Beta virt. eigenvalues --    2.98462   2.99733   3.02813   3.04035   3.04432
  Beta virt. eigenvalues --    3.06794   3.08218   3.16036   3.19207   3.19853
  Beta virt. eigenvalues --    3.24000   3.26180   3.28220   3.30246   3.31272
  Beta virt. eigenvalues --    3.31558   3.34507   3.35838   3.37394   3.38383
  Beta virt. eigenvalues --    3.41572   3.42182   3.43040   3.45210   3.48313
  Beta virt. eigenvalues --    3.50065   3.53944   3.56423   3.59726   3.63831
  Beta virt. eigenvalues --    3.64735   3.76355   3.96397   4.47268   4.57526
  Beta virt. eigenvalues --    4.62172   4.64411   4.72511   4.73936   4.74824
  Beta virt. eigenvalues --    4.86679   4.91351   5.03119   5.46519   5.81785
  Beta virt. eigenvalues --    5.84473   6.10684  22.21643  22.63375  58.49216
  Beta virt. eigenvalues --   58.49251  58.50367  58.50618  58.50838  58.55641
  Beta virt. eigenvalues --   58.56113  58.56389  58.56673  58.56830  95.62731
  Beta virt. eigenvalues --  106.32252 106.33254 106.40298
          Condensed to atoms (all electrons):
               1          2          3          4          5          6
     1  O    8.672345  -0.021107  -0.085448  -0.001633   0.037006  -0.003837
     2  N   -0.021107   7.352591   0.090068  -0.064418  -0.020156   0.015908
     3  C   -0.085448   0.090068   5.432649   0.244188  -0.097817   0.018193
     4  C   -0.001633  -0.064418   0.244188   5.179632   0.607433  -0.034554
     5  C    0.037006  -0.020156  -0.097817   0.607433   5.389400   0.193959
     6  C   -0.003837   0.015908   0.018193  -0.034554   0.193959   5.228394
     7  S   -0.000771   0.004855   0.000310  -0.002447  -0.127929   0.259191
     8  C   -0.071327   0.067132  -0.140522  -0.053716   0.218235  -0.074652
     9  C   -0.015835  -0.090431   0.006676  -0.003144  -0.063952   0.008473
    10  C   -0.006026  -0.085417   0.017658  -0.009698  -0.080413   0.005418
    11  C   -0.002096  -0.103819   0.312884  -0.051773  -0.011023  -0.002310
    12  C   -0.007405  -0.092779   0.312696  -0.074385  -0.000554  -0.001689
    13  H   -0.000741   0.004465  -0.036129   0.406178  -0.050246  -0.001529
    14  H    0.000034  -0.001509   0.002495   0.022511  -0.081514   0.420117
    15  H    0.000144  -0.003557  -0.000048   0.005648  -0.063682   0.407697
    16  H   -0.001575   0.014270  -0.004415   0.004331   0.002688  -0.000866
    17  H   -0.000471   0.006802  -0.000356   0.001020  -0.006774   0.002177
    18  H    0.007604  -0.025354   0.001819  -0.000879   0.008308  -0.000964
    19  H    0.008107  -0.024770  -0.001378  -0.001348   0.018622  -0.001319
    20  H   -0.000672   0.004672  -0.000774   0.001490  -0.002651   0.001935
    21  H   -0.000142   0.006340   0.001906   0.000386  -0.005002   0.003880
    22  H    0.000016   0.004151  -0.053279  -0.006682   0.008364  -0.000697
    23  H   -0.000866   0.007045  -0.046703   0.000978   0.001728  -0.000049
    24  H    0.007406  -0.024174  -0.033870   0.015694  -0.002688   0.000070
    25  H    0.007698  -0.030801  -0.025257   0.015276  -0.001153   0.000017
    26  H   -0.000318   0.009551  -0.047659  -0.002864   0.000079  -0.000029
    27  H   -0.000589   0.010994  -0.061436  -0.003533   0.005185  -0.000511
    28  S   -0.000218   0.000223  -0.001286  -0.031361  -0.004233  -0.004487
    29  O    0.000283   0.003257  -0.002505   0.031605   0.008736   0.004707
    30  O    0.000169  -0.001830  -0.004864   0.024983   0.016415  -0.024454
    31  C    0.000013  -0.000010  -0.000595   0.003426   0.003853  -0.000347
    32  H   -0.000000  -0.000005   0.000031  -0.000142  -0.000387   0.000146
    33  H   -0.000000   0.000003   0.000020   0.000011   0.000050   0.000203
    34  H   -0.000000   0.000001  -0.000026  -0.000529   0.000157  -0.000420
               7          8          9         10         11         12
     1  O   -0.000771  -0.071327  -0.015835  -0.006026  -0.002096  -0.007405
     2  N    0.004855   0.067132  -0.090431  -0.085417  -0.103819  -0.092779
     3  C    0.000310  -0.140522   0.006676   0.017658   0.312884   0.312696
     4  C   -0.002447  -0.053716  -0.003144  -0.009698  -0.051773  -0.074385
     5  C   -0.127929   0.218235  -0.063952  -0.080413  -0.011023  -0.000554
     6  C    0.259191  -0.074652   0.008473   0.005418  -0.002310  -0.001689
     7  S   15.865946  -0.004027   0.003729  -0.000471  -0.000220   0.000887
     8  C   -0.004027   5.423760   0.322440   0.325691   0.018216   0.018252
     9  C    0.003729   0.322440   5.009069  -0.084972  -0.005444   0.004852
    10  C   -0.000471   0.325691  -0.084972   5.034745   0.005077  -0.005978
    11  C   -0.000220   0.018216  -0.005444   0.005077   5.034589  -0.081424
    12  C    0.000887   0.018252   0.004852  -0.005978  -0.081424   5.020393
    13  H    0.000006   0.012230  -0.000896  -0.001514  -0.000604   0.002681
    14  H   -0.042051   0.002708   0.000047  -0.001853  -0.000129  -0.000034
    15  H   -0.041362   0.007840  -0.000912   0.005729   0.000311  -0.000068
    16  H    0.000955  -0.064316   0.412620   0.009173   0.000178  -0.001504
    17  H    0.001042  -0.034532   0.399889  -0.004077   0.000142  -0.000135
    18  H    0.000019  -0.032622   0.412693  -0.003920  -0.000086   0.000034
    19  H    0.000019  -0.040654  -0.002878   0.415239  -0.000325   0.000116
    20  H   -0.000145  -0.038735  -0.003879   0.401282  -0.000074   0.000157
    21  H   -0.001099  -0.056072   0.008339   0.410002  -0.000859  -0.000096
    22  H    0.000012  -0.001358   0.000070  -0.001038   0.410464   0.008326
    23  H    0.000006  -0.001233   0.000170  -0.000078   0.405622  -0.002888
    24  H   -0.000012   0.000524  -0.000003  -0.000308   0.411542  -0.003966
    25  H   -0.000033  -0.002018   0.000191  -0.000054  -0.004425   0.410288
    26  H   -0.000004  -0.000738  -0.000138   0.000163  -0.002189   0.406647
    27  H   -0.000048  -0.000294  -0.001606   0.000101   0.009097   0.412930
    28  S    0.310790   0.002021  -0.003232  -0.000203  -0.000923   0.002068
    29  O   -0.075150  -0.006539  -0.000947   0.000074   0.000311  -0.006098
    30  O   -0.083619  -0.002548   0.000698  -0.000061   0.001138   0.000413
    31  C   -0.052089  -0.000918   0.000185   0.000045   0.000059  -0.000187
    32  H   -0.000604   0.000122  -0.000063  -0.000002  -0.000001  -0.000006
    33  H    0.001484  -0.000037  -0.000002   0.000001  -0.000000  -0.000005
    34  H    0.002657   0.000117   0.000004  -0.000001  -0.000000   0.000008
              13         14         15         16         17         18
     1  O   -0.000741   0.000034   0.000144  -0.001575  -0.000471   0.007604
     2  N    0.004465  -0.001509  -0.003557   0.014270   0.006802  -0.025354
     3  C   -0.036129   0.002495  -0.000048  -0.004415  -0.000356   0.001819
     4  C    0.406178   0.022511   0.005648   0.004331   0.001020  -0.000879
     5  C   -0.050246  -0.081514  -0.063682   0.002688  -0.006774   0.008308
     6  C   -0.001529   0.420117   0.407697  -0.000866   0.002177  -0.000964
     7  S    0.000006  -0.042051  -0.041362   0.000955   0.001042   0.000019
     8  C    0.012230   0.002708   0.007840  -0.064316  -0.034532  -0.032622
     9  C   -0.000896   0.000047  -0.000912   0.412620   0.399889   0.412693
    10  C   -0.001514  -0.001853   0.005729   0.009173  -0.004077  -0.003920
    11  C   -0.000604  -0.000129   0.000311   0.000178   0.000142  -0.000086
    12  C    0.002681  -0.000034  -0.000068  -0.001504  -0.000135   0.000034
    13  H    0.508522   0.002137  -0.000025  -0.000041  -0.000001   0.000004
    14  H    0.002137   0.489298  -0.014207  -0.000034  -0.000017   0.000001
    15  H   -0.000025  -0.014207   0.530615   0.000088  -0.000045   0.000011
    16  H   -0.000041  -0.000034   0.000088   0.537192  -0.019224  -0.015062
    17  H   -0.000001  -0.000017  -0.000045  -0.019224   0.566232  -0.021012
    18  H    0.000004   0.000001   0.000011  -0.015062  -0.021012   0.522151
    19  H    0.000005   0.000003  -0.000033  -0.000007  -0.000253   0.001938
    20  H    0.000002   0.000020  -0.000042   0.000099   0.001240  -0.000159
    21  H   -0.000015  -0.000012  -0.000251  -0.000140   0.000073   0.000031
    22  H    0.000071   0.000004   0.000002  -0.000001   0.000000   0.000000
    23  H    0.000532   0.000001   0.000000  -0.000000  -0.000000   0.000000
    24  H    0.000018   0.000000  -0.000000  -0.000001   0.000000  -0.000002
    25  H   -0.000042  -0.000000   0.000000  -0.000004  -0.000000  -0.000009
    26  H    0.000171  -0.000001   0.000000   0.000008  -0.000000  -0.000000
    27  H   -0.000114  -0.000002   0.000000   0.000312   0.000010  -0.000013
    28  S    0.003521  -0.014283   0.002875  -0.000855  -0.000987   0.000381
    29  O   -0.000352   0.001040  -0.000796  -0.000044   0.000184  -0.000011
    30  O   -0.001040   0.011537  -0.001260   0.000063   0.000020  -0.000010
    31  C   -0.000117   0.000453  -0.000047   0.000032   0.000049  -0.000003
    32  H    0.000000   0.000005  -0.000001  -0.000000  -0.000000   0.000000
    33  H    0.000000  -0.000011   0.000000   0.000000   0.000000  -0.000000
    34  H    0.000001   0.000024  -0.000000   0.000000  -0.000000   0.000000
              19         20         21         22         23         24
     1  O    0.008107  -0.000672  -0.000142   0.000016  -0.000866   0.007406
     2  N   -0.024770   0.004672   0.006340   0.004151   0.007045  -0.024174
     3  C   -0.001378  -0.000774   0.001906  -0.053279  -0.046703  -0.033870
     4  C   -0.001348   0.001490   0.000386  -0.006682   0.000978   0.015694
[...]
     6  C   -0.049177  -0.000275
     7  S   -0.019827   0.000409
     8  C    0.207570  -0.035690
     9  C    0.068384   0.023055
    10  C    0.030486   0.020638
    11  C    0.039591   0.020542
    12  C    0.061269   0.023761
    28  S    0.890445  -0.000080
    29  O   -0.511832   0.000003
    30  O   -0.568898  -0.000019
    31  C    0.150019  -0.000010
 Electronic spatial extent (au):  <R**2>=           4766.1521
 Charge=             -0.0000 electrons
 Dipole moment (field-independent basis, Debye):
    X=              4.1680    Y=              1.8407    Z=             -2.2382  Tot=              5.0764
 Quadrupole moment (field-independent basis, Debye-Ang):
   XX=           -107.2289   YY=           -109.0333   ZZ=           -116.3710
   XY=              5.3174   XZ=              7.0831   YZ=             -0.6330
 Traceless Quadrupole moment (field-independent basis, Debye-Ang):
   XX=              3.6488   YY=              1.8445   ZZ=             -5.4932
   XY=              5.3174   XZ=              7.0831   YZ=             -0.6330
 Octapole moment (field-independent basis, Debye-Ang**2):
  XXX=            184.8394  YYY=             -3.7909  ZZZ=              0.1934  XYY=            -13.9056
  XXY=             -8.4790  XXZ=             -9.9237  XZZ=              0.7637  YZZ=              5.9665
  YYZ=             -2.4481  XYZ=              0.5225
 Hexadecapole moment (field-independent basis, Debye-Ang**3):
 XXXX=          -3941.4301 YYYY=          -1372.2587 ZZZZ=           -687.2708 XXXY=            -20.7521
 XXXZ=            127.7117 YYYX=            -16.8490 YYYZ=              0.9878 ZZZX=            -10.4872
 ZZZY=             -2.4834 XXYY=           -931.9868 XXZZ=           -860.0389 YYZZ=           -351.6000
 XXYZ=             -4.1197 YYXZ=             -4.3189 ZZXY=             14.7174
 N-N= 1.521176946707D+03 E-N=-6.497766270144D+03  KE= 1.459899077050D+03
                          Isotropic Fermi Contact Couplings
        Atom                 a.u.       MegaHertz       Gauss      10(-4) cm-1
     1  O(17)              0.08641     -52.37952     -18.69032     -17.47193
     2  N(14)              0.10668      34.46919      12.29946      11.49768
     3  C(13)             -0.01475     -16.57648      -5.91490      -5.52932
     4  C(13)             -0.00024      -0.26918      -0.09605      -0.08979
     5  C(13)             -0.00042      -0.46800      -0.16700      -0.15611
     6  C(13)             -0.00073      -0.82253      -0.29350      -0.27437
     7  S(33)             -0.00001      -0.00241      -0.00086      -0.00080
     8  C(13)             -0.01502     -16.88313      -6.02432      -5.63161
     9  C(13)              0.01265      14.22283       5.07506       4.74423
    10  C(13)              0.01775      19.95292       7.11970       6.65558
    11  C(13)              0.01738      19.53285       6.96981       6.51546
    12  C(13)              0.01313      14.75666       5.26554       4.92229
    13  H(1)              -0.00032      -1.44936      -0.51717      -0.48345
    14  H(1)               0.00001       0.06438       0.02297       0.02147
    15  H(1)               0.00001       0.05489       0.01959       0.01831
    16  H(1)              -0.00039      -1.75263      -0.62538      -0.58462
    17  H(1)               0.00027       1.22489       0.43707       0.40858
    18  H(1)              -0.00052      -2.34123      -0.83541      -0.78095
    19  H(1)              -0.00049      -2.19482      -0.78317      -0.73211
    20  H(1)               0.00039       1.72838       0.61673       0.57653
    21  H(1)              -0.00034      -1.49915      -0.53493      -0.50006
    22  H(1)              -0.00034      -1.51406      -0.54025      -0.50504
    23  H(1)               0.00036       1.60593       0.57304       0.53568
    24  H(1)              -0.00047      -2.10766      -0.75207      -0.70304
    25  H(1)              -0.00051      -2.28219      -0.81434      -0.76126
    26  H(1)               0.00031       1.39974       0.49946       0.46690
    27  H(1)              -0.00040      -1.78333      -0.63634      -0.59486
    28  S(33)              0.00000       0.00044       0.00016       0.00015
    29  O(17)             -0.00001       0.00388       0.00139       0.00130
    30  O(17)             -0.00003       0.01873       0.00668       0.00625
    31  C(13)             -0.00000      -0.00469      -0.00167      -0.00156
    32  H(1)               0.00000       0.00103       0.00037       0.00034
    33  H(1)               0.00000       0.00067       0.00024       0.00022
    34  H(1)              -0.00000      -0.00057      -0.00020      -0.00019
 --------------------------------------------------------
       Center         ----  Spin Dipole Couplings  ----
                      3XX-RR        3YY-RR        3ZZ-RR
 --------------------------------------------------------
     1   Atom       -0.203958     -0.886264      1.090222
     2   Atom       -0.140897     -0.555540      0.696436
     3   Atom       -0.005540      0.011737     -0.006197
     4   Atom        0.004857     -0.005130      0.000273
     5   Atom        0.008510     -0.007183     -0.001328
     6   Atom        0.002262     -0.001416     -0.000846
     7   Atom        0.002335     -0.001305     -0.001030
     8   Atom        0.003084      0.004963     -0.008047
     9   Atom       -0.011045     -0.000750      0.011795
    10   Atom       -0.009932      0.019741     -0.009808
    11   Atom       -0.000861      0.002450     -0.001589
    12   Atom       -0.016966      0.015744      0.001222
    13   Atom        0.001781     -0.001069     -0.000711
    14   Atom        0.001460     -0.001215     -0.000245
    15   Atom        0.001225     -0.000687     -0.000538
    16   Atom        0.003348     -0.003381      0.000033
    17   Atom        0.000431      0.001937     -0.002367
    18   Atom       -0.002114      0.004353     -0.002239
    19   Atom       -0.004852      0.009733     -0.004880
    20   Atom       -0.001234      0.003897     -0.002663
    21   Atom       -0.005621      0.000536      0.005085
    22   Atom       -0.005767     -0.002148      0.007916
    23   Atom       -0.002705      0.003614     -0.000909
    24   Atom       -0.001808      0.003941     -0.002133
    25   Atom       -0.004835      0.009886     -0.005051
    26   Atom       -0.002831      0.005383     -0.002552
    27   Atom       -0.000425      0.001837     -0.001412
    28   Atom        0.001424     -0.000726     -0.000698
    29   Atom        0.001470     -0.000689     -0.000780
    30   Atom        0.001037     -0.000590     -0.000447
    31   Atom        0.000663     -0.000329     -0.000333
    32   Atom        0.000621     -0.000311     -0.000310
    33   Atom        0.000519     -0.000249     -0.000270
    34   Atom        0.000552     -0.000285     -0.000267
 --------------------------------------------------------
                        XY            XZ            YZ
 --------------------------------------------------------
     1   Atom       -0.305206      1.363182     -0.495898
     2   Atom       -0.179728      0.781258     -0.297403
     3   Atom       -0.008316     -0.001074      0.006533
     4   Atom       -0.006320     -0.007172      0.003057
     5   Atom        0.002635     -0.007441     -0.001335
     6   Atom        0.000979     -0.001774     -0.000401
     7   Atom        0.000926      0.000523      0.000198
     8   Atom        0.012494     -0.000930     -0.002620
     9   Atom        0.010160      0.007732      0.021609
    10   Atom       -0.010948      0.004147     -0.017676
    11   Atom        0.015214      0.013948      0.018617
    12   Atom       -0.003527     -0.001292     -0.023096
    13   Atom       -0.002807     -0.002844      0.001662
    14   Atom        0.000293     -0.001637     -0.000197
    15   Atom        0.001542     -0.001640     -0.000912
    16   Atom        0.003589      0.007084      0.002025
    17   Atom        0.005266      0.000572      0.001148
    18   Atom        0.005915      0.002195      0.007973
    19   Atom       -0.001646     -0.001166     -0.005217
    20   Atom        0.003297     -0.001015     -0.003095
    21   Atom        0.001108      0.000173     -0.007467
    22   Atom        0.000540      0.002782      0.005403
    23   Atom       -0.000981     -0.000121      0.004637
    24   Atom        0.005472      0.001922      0.006986
    25   Atom       -0.001456     -0.001340     -0.005346
    26   Atom       -0.003439     -0.000670      0.000351
    27   Atom       -0.005897      0.004836     -0.004365
    28   Atom       -0.000211     -0.000169      0.000027
    29   Atom       -0.000555      0.000340     -0.000081
    30   Atom       -0.000405     -0.000557      0.000137
    31   Atom       -0.000043     -0.000046      0.000003
    32   Atom        0.000035      0.000068      0.000003
    33   Atom       -0.000125     -0.000022      0.000003
    34   Atom        0.000020     -0.000132     -0.000002
 --------------------------------------------------------


 ---------------------------------------------------------------------------------
              Anisotropic Spin Dipole Couplings in Principal Axis System
 ---------------------------------------------------------------------------------

       Atom             a.u.   MegaHertz   Gauss  10(-4) cm-1        Axes

              Baa    -1.0666    77.176    27.538    25.743  0.8300 -0.1030 -0.5482
     1 O(17)  Bbb    -1.0003    72.383    25.828    24.144  0.1915  0.9757  0.1066
              Bcc     2.0669  -149.559   -53.367   -49.888  0.5239 -0.1934  0.8295
 
              Baa    -0.6232   -24.037    -8.577    -8.018  0.1805  0.9770  0.1133
     2 N(14)  Bbb    -0.6085   -23.467    -8.374    -7.828  0.8444 -0.0948 -0.5272
              Bcc     1.2317    47.504    16.951    15.846  0.5043 -0.1909  0.8422
 
              Baa    -0.0099    -1.330    -0.475    -0.444  0.6941  0.4388 -0.5707
     3 C(13)  Bbb    -0.0070    -0.938    -0.335    -0.313  0.6314  0.0099  0.7754
              Bcc     0.0169     2.268     0.809     0.757 -0.3459  0.8985  0.2702
 
              Baa    -0.0082    -1.103    -0.394    -0.368  0.4684  0.8800  0.0788
     4 C(13)  Bbb    -0.0046    -0.611    -0.218    -0.204  0.4370 -0.3083  0.8450
              Bcc     0.0128     1.714     0.612     0.572  0.7678 -0.3614 -0.5290
 
              Baa    -0.0076    -1.022    -0.365    -0.341 -0.1425  0.9889  0.0413
     5 C(13)  Bbb    -0.0053    -0.715    -0.255    -0.238  0.4689  0.0307  0.8827
              Bcc     0.0129     1.737     0.620     0.579  0.8717  0.1452 -0.4681
 
              Baa    -0.0017    -0.227    -0.081    -0.076 -0.4290  0.7023 -0.5681
     6 C(13)  Bbb    -0.0016    -0.217    -0.077    -0.072  0.1577  0.6775  0.7184
              Bcc     0.0033     0.443     0.158     0.148  0.8894  0.2186 -0.4014
 
              Baa    -0.0015    -0.063    -0.023    -0.021 -0.2089  0.9647 -0.1604
     7 S(33)  Bbb    -0.0011    -0.045    -0.016    -0.015 -0.1816  0.1229  0.9757
              Bcc     0.0026     0.108     0.039     0.036  0.9609  0.2329  0.1495
 
              Baa    -0.0095    -1.276    -0.455    -0.425 -0.4964  0.5502  0.6714
     8 C(13)  Bbb    -0.0073    -0.981    -0.350    -0.327  0.5480 -0.4012  0.7340
              Bcc     0.0168     2.256     0.805     0.753  0.6732  0.7323 -0.1024
 
              Baa    -0.0193    -2.596    -0.926    -0.866 -0.5567  0.7409 -0.3759
     9 C(13)  Bbb    -0.0122    -1.642    -0.586    -0.548  0.7827  0.3161 -0.5361
              Bcc     0.0316     4.238     1.512     1.414  0.2783  0.5926  0.7559
 
              Baa    -0.0182    -2.444    -0.872    -0.815  0.1625  0.4547  0.8757
    10 C(13)  Bbb    -0.0131    -1.757    -0.627    -0.586  0.9483  0.1731 -0.2658
              Bcc     0.0313     4.201     1.499     1.401 -0.2724  0.8737 -0.4031
 
              Baa    -0.0183    -2.456    -0.876    -0.819 -0.0361 -0.6525  0.7569
    11 C(13)  Bbb    -0.0138    -1.849    -0.660    -0.617  0.8467 -0.4223 -0.3237
              Bcc     0.0321     4.306     1.536     1.436  0.5309  0.6292  0.5677
 
              Baa    -0.0196    -2.628    -0.938    -0.877  0.7763  0.3974  0.4893
    12 C(13)  Bbb    -0.0132    -1.771    -0.632    -0.591 -0.6289  0.4367  0.6432
              Bcc     0.0328     4.399     1.570     1.467 -0.0419  0.8071 -0.5889
 
              Baa    -0.0028    -1.497    -0.534    -0.499  0.5942  0.7825  0.1859
    13 H(1)   Bbb    -0.0025    -1.334    -0.476    -0.445  0.2911 -0.4247  0.8573
              Bcc     0.0053     2.831     1.010     0.944  0.7498 -0.4553 -0.4801
 
              Baa    -0.0013    -0.672    -0.240    -0.224  0.2391  0.8057  0.5418
    14 H(1)   Bbb    -0.0012    -0.654    -0.234    -0.218  0.4677 -0.5846  0.6629
              Bcc     0.0025     1.327     0.473     0.443  0.8509  0.0949 -0.5166
 
              Baa    -0.0015    -0.825    -0.294    -0.275 -0.4881  0.8728 -0.0040
    15 H(1)   Bbb    -0.0015    -0.809    -0.289    -0.270  0.4017  0.2287  0.8868
              Bcc     0.0031     1.634     0.583     0.545  0.7748  0.4312 -0.4622
 
              Baa    -0.0059    -3.139    -1.120    -1.047  0.6497 -0.4182 -0.6348
    16 H(1)   Bbb    -0.0043    -2.297    -0.820    -0.766  0.0623  0.8616 -0.5038
              Bcc     0.0102     5.436     1.940     1.813  0.7576  0.2878  0.5858
 
              Baa    -0.0042    -2.239    -0.799    -0.747  0.7279 -0.6599  0.1863
    17 H(1)   Bbb    -0.0025    -1.322    -0.472    -0.441 -0.2298  0.0212  0.9730
              Bcc     0.0067     3.561     1.271     1.188  0.6460  0.7511  0.1362
 
              Baa    -0.0081    -4.333    -1.546    -1.445  0.3495 -0.6166  0.7054
    18 H(1)   Bbb    -0.0042    -2.237    -0.798    -0.746  0.8502 -0.1077 -0.5153
              Bcc     0.0123     6.570     2.345     2.192  0.3938  0.7799  0.4866
 
              Baa    -0.0075    -4.026    -1.437    -1.343  0.5245  0.2915  0.7999
    19 H(1)   Bbb    -0.0039    -2.107    -0.752    -0.703  0.8481 -0.0966 -0.5209
              Bcc     0.0115     6.133     2.188     2.046 -0.0746  0.9517 -0.2979
 
              Baa    -0.0039    -2.105    -0.751    -0.702 -0.1903  0.4285  0.8833
    20 H(1)   Bbb    -0.0027    -1.433    -0.511    -0.478  0.8961 -0.2915  0.3346
              Bcc     0.0066     3.538     1.262     1.180  0.4009  0.8552 -0.3285
 
              Baa    -0.0064    -3.393    -1.211    -1.132  0.8083 -0.4874 -0.3302
    21 H(1)   Bbb    -0.0043    -2.280    -0.814    -0.761  0.5878  0.6376  0.4979
              Bcc     0.0106     5.673     2.024     1.892 -0.0321 -0.5966  0.8019
 
              Baa    -0.0064    -3.427    -1.223    -1.143  0.9409  0.2135 -0.2630
    22 H(1)   Bbb    -0.0043    -2.299    -0.820    -0.767 -0.2955  0.8969 -0.3291
              Bcc     0.0107     5.726     2.043     1.910  0.1656  0.3874  0.9069
 
              Baa    -0.0040    -2.110    -0.753    -0.704 -0.3351 -0.5234  0.7834
    23 H(1)   Bbb    -0.0026    -1.410    -0.503    -0.470  0.9373 -0.1004  0.3338
              Bcc     0.0066     3.521     1.256     1.174 -0.0961  0.8462  0.5242
 
              Baa    -0.0073    -3.881    -1.385    -1.295  0.3703 -0.6145  0.6966
    24 H(1)   Bbb    -0.0037    -1.996    -0.712    -0.666  0.8361 -0.1062 -0.5381
              Bcc     0.0110     5.877     2.097     1.960  0.4047  0.7817  0.4745
 
              Baa    -0.0078    -4.155    -1.483    -1.386  0.5099  0.2873  0.8109
    25 H(1)   Bbb    -0.0039    -2.067    -0.737    -0.689  0.8582 -0.1045 -0.5026
              Bcc     0.0117     6.222     2.220     2.075 -0.0597  0.9521 -0.2998
 
              Baa    -0.0042    -2.261    -0.807    -0.754  0.9034  0.3122  0.2939
    26 H(1)   Bbb    -0.0024    -1.296    -0.463    -0.432 -0.2565 -0.1558  0.9539
              Bcc     0.0067     3.557     1.269     1.187 -0.3436  0.9372  0.0607
 
              Baa    -0.0060    -3.194    -1.140    -1.066  0.7797  0.2734 -0.5634
    27 H(1)   Bbb    -0.0043    -2.291    -0.817    -0.764  0.2367  0.7043  0.6693
              Bcc     0.0103     5.485     1.957     1.830 -0.5797  0.6552 -0.4844
 
              Baa    -0.0007    -0.031    -0.011    -0.010  0.0733  0.9627 -0.2605
    28 S(33)  Bbb    -0.0007    -0.029    -0.010    -0.010  0.1015  0.2527  0.9622
              Bcc     0.0015     0.060     0.021     0.020  0.9921 -0.0970 -0.0792
 
              Baa    -0.0008     0.060     0.021     0.020 -0.1684 -0.0968  0.9810
    29 O(17)  Bbb    -0.0008     0.060     0.021     0.020  0.2145  0.9677  0.1323
              Bcc     0.0017    -0.120    -0.043    -0.040  0.9621 -0.2327  0.1422
 
              Baa    -0.0007     0.050     0.018     0.017  0.1945  0.9750 -0.1078
    30 O(17)  Bbb    -0.0006     0.046     0.016     0.015  0.3247  0.0397  0.9450
              Bcc     0.0013    -0.095    -0.034    -0.032  0.9256 -0.2188 -0.3089
 
              Baa    -0.0003    -0.045    -0.016    -0.015  0.0392 -0.1488  0.9881
    31 C(13)  Bbb    -0.0003    -0.044    -0.016    -0.015  0.0493  0.9879  0.1468
              Bcc     0.0007     0.089     0.032     0.030  0.9980 -0.0430 -0.0461
 
              Baa    -0.0003    -0.168    -0.060    -0.056 -0.0689 -0.0975  0.9928
    32 H(1)   Bbb    -0.0003    -0.167    -0.060    -0.056 -0.0445  0.9945  0.0946
              Bcc     0.0006     0.335     0.119     0.112  0.9966  0.0376  0.0729
 
              Baa    -0.0003    -0.144    -0.052    -0.048  0.0250 -0.0140  0.9996
    33 H(1)   Bbb    -0.0003    -0.144    -0.051    -0.048  0.1566  0.9876  0.0099
              Bcc     0.0005     0.288     0.103     0.096  0.9873 -0.1563 -0.0269
 
              Baa    -0.0003    -0.153    -0.055    -0.051  0.1513 -0.4086  0.9001
    34 H(1)   Bbb    -0.0003    -0.152    -0.054    -0.051  0.0418  0.9124  0.4072
              Bcc     0.0006     0.306     0.109     0.102  0.9876  0.0240 -0.1551
 

 ---------------------------------------------------------------------------------

 No NMR shielding tensors so no spin-rotation constants.
 Leave Link  601 at Mon Jun 17 21:22:34 2019, MaxMem=  8053063680 cpu:               0.0 elap:               0.4
 (Enter /data2/g16/g16/l9999.exe)
 1\1\GINC-CU05\SP\UPBE1PBE\Gen\C10H18N1O3S2(2)\ROOT\17-Jun-2019\0\\#p g
 en 6d pbe1pbe\\start preoptimized\\0,2\O,0,-3.674082,0.169449,1.035201
 \N,0,-2.640631,0.044269,0.316821\C,0,-2.170033,-1.267829,-0.170532\C,0
 ,-0.862683,-0.864092,-0.783139\C,0,-0.596604,0.439774,-0.648988\C,0,0.
 609545,1.120976,-1.194588\S,0,1.946967,1.450361,0.033285\C,0,-1.701306
 ,1.165435,0.092541\C,0,-1.280336,1.74671,1.444211\C,0,-2.387899,2.2376
 54,-0.760514\C,0,-3.156101,-1.827144,-1.19918\C,0,-2.011442,-2.230664,
 1.010431\H,0,-0.208733,-1.578074,-1.277913\H,0,1.066189,0.534849,-1.99
 4142\H,0,0.383948,2.120195,-1.583368\H,0,-0.743515,1.00504,2.041019\H,
 0,-0.631583,2.618665,1.309161\H,0,-2.178928,2.056091,1.986622\H,0,-3.2
 98592,2.572335,-0.251246\H,0,-1.735785,3.10723,-0.900069\H,0,-2.663898
 ,1.842168,-1.742786\H,0,-3.257485,-1.149458,-2.054764\H,0,-2.811984,-2
 .802733,-1.564476\H,0,-4.138869,-1.953148,-0.734138\H,0,-2.977351,-2.3
 44514,1.51337\H,0,-1.676177,-3.211913,0.656168\H,0,-1.279109,-1.85395,
 1.728899\S,0,2.754023,-0.530088,0.105476\O,0,2.327432,-1.20839,1.34832
 4\O,0,2.498639,-1.169462,-1.208359\C,0,4.510088,-0.18288,0.238346\H,0,
 4.669152,0.429818,1.129387\H,0,4.989813,-1.158387,0.350006\H,0,4.83039
 8,0.324914,-0.670795\\Version=AM64L-G16RevB.01\State=2-A\HF=-1467.5485
 39\S2=0.754992\S2-1=0.\S2A=0.750017\RMSD=7.959e-09\Dipole=1.6366238,0.
 7264797,-0.884636\Quadrupole=2.7203927,1.3850796,-4.1054723,3.9591403,
 5.2493967,-0.4737617\PG=C01 [X(C10H18N1O3S2)]\\@


 IF YOU GIVE A BOY AND A PIG EVERYTHING THEY WANT,
 YOU'LL GET A BAD BOY AND A GOOD PIG.
 Elapsed time:       0 days  0 hours  2 minutes 40.5 seconds.
 File lengths (MBytes):  RWF=    181 Int=      0 D2E=      0 Chk=     15 Scr=      1
 Normal termination of Gaussian 16 at Mon Jun 17 21:22:35 2019.
