 Entering Gaussian System, Link 0=g16
 AtFile(1): /home/malgo/Basis_sets/n07d_pbe0.gbs
            -H 0
             6-31G
             S   1 1.00       0.000000000000
                  0.4000000000D+00  0.10000000D+01
             P   1 1.00       0.000000000000
                  0.7500000000D+00  0.10000000D+01
             ****
             -He 0
             6-31+G**
             ****
             -Li 0
             6-31+G**
             ****
             -Be 0
             6-31+G**
             ****
             -B 0
             6-31G
             S   1 1.00       0.000000000000
                  0.7000000000D+01  0.1000000000D+01
             P   1 1.00       0.000000000000
                  0.3500000000D-01  0.1000000000D+01
             D   1 1.00
                  0.3430000000D+00  0.1000000000D+01
             ****
             -C 0
             6-31G
             S   1 1.00       0.000000000000
                  0.8700000000D+01  0.1000000000D+01
             P   1 1.00       0.000000000000
                  0.5000000000D-01  0.1000000000D+01
             D   1 1.00
                  0.8200000000D+00  0.1000000000D+01
             ****
             -N 0
             6-31G
             S   1 1.00       0.000000000000
                  0.1370000000D+02  0.1000000000D+01
             P   1 1.00       0.000000000000
                  0.5300000000D-01  0.1000000000D+01
             D   1 1.00       0.000000000000
                  0.1015000000D+01  0.1000000000D+01
             ****
             -O 0
             6-31G
             S   1 1.00
                  0.1600000000D+02  0.1000000000D+01
             P   1 1.00       0.000000000000
                  0.6500000000D-01  0.1000000000D+01
             D   1 1.00        0.000000000000
                  0.1190000000D+01  0.1000000000D+01
             D   1 1.00        0.000000000000
                  0.1800000000D+00  0.1000000000D+01
             ****
             -F 0
             6-31G
             S   1 1.00
                  0.1770000000D+02  0.1000000000D+01
             P   1 1.00       0.000000000000
                  0.8300000000D-01  0.1000000000D+01
             D   1 1.00       0.000000000000
                  1.3700000000D+00  0.1000000000D+01
             D   1 1.00       0.000000000000
                  0.2300000000D+00  0.1000000000D+01
             ****
             -Ne 0
             6-31+G**
             ****
             -Na 0
             6-31+G**
             ****
             -Mg 0
             6-31+G**
             ****
             -Al 0
             6-31G
             S   1 1.00      0.000000000000
                  0.3100000000D+01  0.1000000000D+01
             P   1 1.00      0.000000000000
                  0.1500000000D-01  0.1000000000D+01
             D   1 1.00      0.000000000000
                  0.1890000000D+00  0.1000000000D+01
             ****
             -Si 0
             6-31G
             S   1 1.00      0.000000000000
                  0.5000000000D+01  0.1000000000D+01
             P   1 1.00       0.000000000000
                  0.3300000000D-01  0.1000000000D+01
             D   1 1.0        0.000000000000
                  0.2750000000D+00  0.1000000000D+01
             ****
             -P  0
             6-31G
             S   1 1.00       0.000000000000
                  0.6300000000D+01  0.1000000000D+01
             P   1 1.00       0.000000000000
                  0.3500000000D-01  0.1000000000D+01
             D   1 1.00       0.000000000000
                  0.3730000000D+00  0.1000000000D+01
             ****
             -S  0
             6-31G
             S   1  1.00      0.000000000000
                  0.7500000000D+01  0.1000000000D+01
             P   1 1.00       0.000000000000
                  0.4100000000D-01  0.1000000000D+01
             D   1 1.00       0.000000000000
                  0.4790000000D+00  0.1000000000D+01
             ****
            -Cl 0
             6-31G
             S   1 1.00       0.000000000000
                  0.8500000000D+01  0.1000000000D+01
             P   1 1.00       0.000000000000
                  0.4800000000D-01  0.1000000000D+01
             D   1 1.00       0.000000000000
                  0.6000000000D+00  0.1000000000D+01
             D   1 1.00       0.000000000000
                  0.1960000000D+00  0.1000000000D+01
             ****
            -Br 0
             S   3 1.00       0.000000000000
                  0.4721881000D+01  0.1749732514D+00
                  0.2257555000D+01 -0.7074172290D+00
                  0.3896080000D+00  0.1258999543D+01
             S   1 1.00       0.000000000000
                  0.1471340000D+00  0.1000000000D+01
             P   3 1.00       0.000000000000
                  0.1896942000D+01 -0.2464576731D+00
                  0.9108990000D+00  0.3623179892D+00
                  0.3168550000D+00  0.8338469725D+00
             P   1 1.00       0.000000000000
                  0.1095030000D+00  0.1000000000D+01
             P   1 1.00       0.000000000000
                  0.3609700000D-01  0.1000000000D+01
             D   1 1.00
                  0.4750000000D+00  0.1000000000D+01
             D   1 1.00
                  0.1280000000D+00  0.1000000000D+01
             ****
            -I   0
             S   3 1.00       0.000000000000
                  0.2122765000D+01  0.2063429899D+01
                  0.1770481000D+01 -0.2869526473D+01
                  0.3130840000D+00  0.1404747074D+01
             S   1 1.00       0.000000000000
                  0.1320000000D+00  0.1000000000D+01
             P   3 1.00       0.000000000000
                  0.2432887000D+01  0.7732753148D+00
                  0.2137249000D+01 -0.1020833156D+01
                  0.3145460000D+00  0.1095666871D+01
             P   1 1.00       0.000000000000
                  0.1049450000D+00  0.1000000000D+01
             P   1 1.00       0.000000000000
                  0.3264100000D-01  0.1000000000D+01
             D   1 1.00
                  0.300000000          1.00000000
             D   1 1.00
                  0.090000000          1.00000000
             ****
             -Zn 0
             SP   6 1.00       0.000000000000
                  0.6936492000D+02 -0.4440098182D-02 -0.7689261805D-02
                  0.2362082000D+02  0.7505253308D-01 -0.2997981924D-01
                  0.1018471000D+02  0.2533111104D+00  0.7082410821D-01
                  0.4334082000D+01 -0.2881897118D+00  0.4046140897D+00
                  0.1810918000D+01 -0.7267052298D+00  0.4882324876D+00
                  0.7148410000D+00 -0.2133439088D+00  0.1751969956D+00
             SP   3 1.00       0.000000000000
                  0.2823842000D+01  0.4898545031D-01 -0.1586762981D+00
                  0.1039543000D+01  0.2592794075D+00  0.8379326898D-01
                  0.1432640000D+00 -0.1115711463D+01  0.9840546881D+00
             SP   1 1.00       0.000000000000
                  0.4929600000D-01  0.1000000000D+01  0.1000000000D+01
             S    1 1.00       0.000000000000
                  0.1620000000D+00  0.1000000000D+01
             D    3 1.00       0.000000000000
                  0.3370764000D+02  0.9262647815D-01
                  0.9061106000D+01  0.4002979920D+00
                  0.2738383000D+01  0.6896607863D+00
             D    1 1.00
                  0.2440000000D+01  0.1000000000D+01
             D    1 1.00       0.000000000000
                  0.7302940000D+00  0.1000000000D+01
             D    1 1.00       0.000000000000
                  0.1620000000D+00  0.1000000000D+01
            ****
 Initial command:
 /data2/g16/g16/l1.exe "/tmp/Gau-9276.inp" -scrdir="/tmp/"
 Entering Link 1 = /data2/g16/g16/l1.exe PID=      9277.
  
 Copyright (c) 1988-2017, Gaussian, Inc.  All Rights Reserved.
  
 This is part of the Gaussian(R) 16 program.  It is based on
 the Gaussian(R) 09 system (copyright 2009, Gaussian, Inc.),
 the Gaussian(R) 03 system (copyright 2003, Gaussian, Inc.),
 the Gaussian(R) 98 system (copyright 1998, Gaussian, Inc.),
 the Gaussian(R) 94 system (copyright 1995, Gaussian, Inc.),
 the Gaussian 92(TM) system (copyright 1992, Gaussian, Inc.),
 the Gaussian 90(TM) system (copyright 1990, Gaussian, Inc.),
 the Gaussian 88(TM) system (copyright 1988, Gaussian, Inc.),
 the Gaussian 86(TM) system (copyright 1986, Carnegie Mellon
 University), and the Gaussian 82(TM) system (copyright 1983,
 Carnegie Mellon University). Gaussian is a federally registered
 trademark of Gaussian, Inc.
  
 This software contains proprietary and confidential information,
 including trade secrets, belonging to Gaussian, Inc.
  
 This software is provided under written license and may be
 used, copied, transmitted, or stored only in accord with that
 written license.
  
 The following legend is applicable only to US Government
 contracts under FAR:
  
                    RESTRICTED RIGHTS LEGEND
  
 Use, reproduction and disclosure by the US Government is
 subject to restrictions as set forth in subparagraphs (a)
 and (c) of the Commercial Computer Software - Restricted
 Rights clause in FAR 52.227-19.
  
 Gaussian, Inc.
 340 Quinnipiac St., Bldg. 40, Wallingford CT 06492
  
  
 ---------------------------------------------------------------
 Warning -- This program may not be used in any manner that
 competes with the business of Gaussian, Inc. or will provide
 assistance to any competitor of Gaussian, Inc.  The licensee
 of this program is prohibited from giving any competitor of
 Gaussian, Inc. access to this program.  By using this program,
 the user acknowledges that Gaussian, Inc. is engaged in the
 business of creating and licensing software in the field of
 computational chemistry and represents and warrants to the
 licensee that it is not a competitor of Gaussian, Inc. and that
 it will not use this program in any manner prohibited above.
 ---------------------------------------------------------------
  

 Cite this work as:
 Gaussian 16, Revision B.01,
 M. J. Frisch, G. W. Trucks, H. B. Schlegel, G. E. Scuseria, 
 M. A. Robb, J. R. Cheeseman, G. Scalmani, V. Barone, 
 G. A. Petersson, H. Nakatsuji, X. Li, M. Caricato, A. V. Marenich, 
 J. Bloino, B. G. Janesko, R. Gomperts, B. Mennucci, H. P. Hratchian, 
 J. V. Ortiz, A. F. Izmaylov, J. L. Sonnenberg, D. Williams-Young, 
 F. Ding, F. Lipparini, F. Egidi, J. Goings, B. Peng, A. Petrone, 
 T. Henderson, D. Ranasinghe, V. G. Zakrzewski, J. Gao, N. Rega, 
 G. Zheng, W. Liang, M. Hada, M. Ehara, K. Toyota, R. Fukuda, 
 J. Hasegawa, M. Ishida, T. Nakajima, Y. Honda, O. Kitao, H. Nakai, 
 T. Vreven, K. Throssell, J. A. Montgomery, Jr., J. E. Peralta, 
 F. Ogliaro, M. J. Bearpark, J. J. Heyd, E. N. Brothers, K. N. Kudin, 
 V. N. Staroverov, T. A. Keith, R. Kobayashi, J. Normand, 
 K. Raghavachari, A. P. Rendell, J. C. Burant, S. S. Iyengar, 
 J. Tomasi, M. Cossi, J. M. Millam, M. Klene, C. Adamo, R. Cammi, 
 J. W. Ochterski, R. L. Martin, K. Morokuma, O. Farkas, 
 J. B. Foresman, and D. J. Fox, Gaussian, Inc., Wallingford CT, 2016.
 
 ******************************************
 Gaussian 16:  AM64L-G16RevB.01 20-Dec-2017
                17-Jun-2019 
 ******************************************
 %chk=MTN_PBE0_0.25.chk
 %mem=60GB
 %nprocshared=12
 Will use up to   12 processors via shared memory.
 -----------------
 #p gen 6d pbe1pbe
 -----------------
 1/38=1,172=1/1;
 2/12=2,17=6,18=5,40=1/2;
 3/5=7,8=2,11=2,25=1,30=1,74=-13/1,2,3;
 4//1;
 5/5=2,38=5/2;
 6/7=2,8=2,9=2,10=2,28=1/1;
 99/5=1,9=1/99;
 Leave Link    1 at Mon Jun 17 21:28:02 2019, MaxMem=  8053063680 cpu:               0.0 elap:               0.1
 (Enter /data2/g16/g16/l101.exe)
 ------------------
 start preoptimized
 ------------------
 Symbolic Z-matrix:
 Charge =  0 Multiplicity = 2
 O                    -3.66648   0.16625   1.0492 
 N                    -2.64343   0.04507   0.31122 
 C                    -2.17083  -1.26783  -0.17173 
 C                    -0.86108  -0.86529  -0.77994 
 C                    -0.5958    0.43897  -0.64819 
 C                     0.60995   1.12058  -1.19419 
 S                     1.94737   1.45116   0.03329 
 C                    -1.70211   1.16543   0.09054 
 C                    -1.28434   1.74511   1.44381 
 C                    -2.3847    2.23925  -0.76411 
 C                    -3.1513   -1.82874  -1.20518 
 C                    -2.01944  -2.22826   1.01243 
 H                    -0.20593  -1.57967  -1.27271 
 H                     1.06659   0.53445  -1.99334 
 H                     0.38355   2.11939  -1.58337 
 H                    -0.75032   1.00224   2.04142 
 H                    -0.63398   2.61627   1.31076 
 H                    -2.18413   2.05489   1.98382 
 H                    -3.29699   2.57474  -0.25765 
 H                    -1.73139   3.10843  -0.90087 
 H                    -2.6579    1.84497  -1.74759 
 H                    -3.24789  -1.15226  -2.06276 
 H                    -2.80478  -2.80513  -1.56728 
 H                    -4.13687  -1.95435  -0.74574 
 H                    -2.98855  -2.33931   1.51017 
 H                    -1.68338  -3.21071   0.66177 
 H                    -1.29071  -1.85115   1.7341 
 S                     2.75362  -0.52969   0.10508 
 O                     2.32663  -1.20799   1.34792 
 O                     2.49784  -1.16826  -1.20876 
 C                     4.51009  -0.18408   0.23755 
 H                     4.66995   0.42822   1.12899 
 H                     4.98901  -1.15999   0.34881 
 H                     4.8304    0.32411  -0.6712 
 
 ITRead=  0  0  0  0  0  0  0  0  0  0  0  0  0  0  0  0  0  0  0  0
 ITRead=  0  0  0  0  0  0  0  0  0  0  0  0  0  0
 MicOpt= -1 -1 -1 -1 -1 -1 -1 -1 -1 -1 -1 -1 -1 -1 -1 -1 -1 -1 -1 -1
 MicOpt= -1 -1 -1 -1 -1 -1 -1 -1 -1 -1 -1 -1 -1 -1
 NAtoms=     34 NQM=       34 NQMF=       0 NMMI=      0 NMMIF=      0
                NMic=       0 NMicF=      0.
                    Isotopes and Nuclear Properties:
 (Nuclear quadrupole moments (NQMom) in fm**2, nuclear magnetic moments (NMagM)
  in nuclear magnetons)

  Atom         1           2           3           4           5           6           7           8           9          10
 IAtWgt=          16          14          12          12          12          12          32          12          12          12
 AtmWgt=  15.9949146  14.0030740  12.0000000  12.0000000  12.0000000  12.0000000  31.9720718  12.0000000  12.0000000  12.0000000
 NucSpn=           0           2           0           0           0           0           0           0           0           0
 AtZEff=   0.0000000   0.0000000   0.0000000   0.0000000   0.0000000   0.0000000   0.0000000   0.0000000   0.0000000   0.0000000
 NQMom=    0.0000000   2.0440000   0.0000000   0.0000000   0.0000000   0.0000000   0.0000000   0.0000000   0.0000000   0.0000000
 NMagM=    0.0000000   0.4037610   0.0000000   0.0000000   0.0000000   0.0000000   0.0000000   0.0000000   0.0000000   0.0000000
 AtZNuc=   8.0000000   7.0000000   6.0000000   6.0000000   6.0000000   6.0000000  16.0000000   6.0000000   6.0000000   6.0000000

  Atom        11          12          13          14          15          16          17          18          19          20
 IAtWgt=          12          12           1           1           1           1           1           1           1           1
 AtmWgt=  12.0000000  12.0000000   1.0078250   1.0078250   1.0078250   1.0078250   1.0078250   1.0078250   1.0078250   1.0078250
 NucSpn=           0           0           1           1           1           1           1           1           1           1
 AtZEff=   0.0000000   0.0000000   0.0000000   0.0000000   0.0000000   0.0000000   0.0000000   0.0000000   0.0000000   0.0000000
 NQMom=    0.0000000   0.0000000   0.0000000   0.0000000   0.0000000   0.0000000   0.0000000   0.0000000   0.0000000   0.0000000
 NMagM=    0.0000000   0.0000000   2.7928460   2.7928460   2.7928460   2.7928460   2.7928460   2.7928460   2.7928460   2.7928460
 AtZNuc=   6.0000000   6.0000000   1.0000000   1.0000000   1.0000000   1.0000000   1.0000000   1.0000000   1.0000000   1.0000000

  Atom        21          22          23          24          25          26          27          28          29          30
 IAtWgt=           1           1           1           1           1           1           1          32          16          16
 AtmWgt=   1.0078250   1.0078250   1.0078250   1.0078250   1.0078250   1.0078250   1.0078250  31.9720718  15.9949146  15.9949146
 NucSpn=           1           1           1           1           1           1           1           0           0           0
 AtZEff=   0.0000000   0.0000000   0.0000000   0.0000000   0.0000000   0.0000000   0.0000000   0.0000000   0.0000000   0.0000000
 NQMom=    0.0000000   0.0000000   0.0000000   0.0000000   0.0000000   0.0000000   0.0000000   0.0000000   0.0000000   0.0000000
 NMagM=    2.7928460   2.7928460   2.7928460   2.7928460   2.7928460   2.7928460   2.7928460   0.0000000   0.0000000   0.0000000
 AtZNuc=   1.0000000   1.0000000   1.0000000   1.0000000   1.0000000   1.0000000   1.0000000  16.0000000   8.0000000   8.0000000

  Atom        31          32          33          34
 IAtWgt=          12           1           1           1
 AtmWgt=  12.0000000   1.0078250   1.0078250   1.0078250
 NucSpn=           0           1           1           1
 AtZEff=   0.0000000   0.0000000   0.0000000   0.0000000
 NQMom=    0.0000000   0.0000000   0.0000000   0.0000000
 NMagM=    0.0000000   2.7928460   2.7928460   2.7928460
 AtZNuc=   6.0000000   1.0000000   1.0000000   1.0000000
 Leave Link  101 at Mon Jun 17 21:28:02 2019, MaxMem=  8053063680 cpu:               0.0 elap:               0.2
 (Enter /data2/g16/g16/l202.exe)
                          Input orientation:                          
 ---------------------------------------------------------------------
 Center     Atomic      Atomic             Coordinates (Angstroms)
 Number     Number       Type             X           Y           Z
 ---------------------------------------------------------------------
      1          8           0       -3.666482    0.166249    1.049201
      2          7           0       -2.643431    0.045069    0.311221
      3          6           0       -2.170833   -1.267829   -0.171732
      4          6           0       -0.861083   -0.865292   -0.779939
      5          6           0       -0.595804    0.438974   -0.648188
      6          6           0        0.609945    1.120576   -1.194188
      7         16           0        1.947367    1.451161    0.033285
      8          6           0       -1.702106    1.165435    0.090541
      9          6           0       -1.284336    1.745110    1.443811
     10          6           0       -2.384699    2.239254   -0.764114
     11          6           0       -3.151301   -1.828744   -1.205180
     12          6           0       -2.019442   -2.228264    1.012431
     13          1           0       -0.205933   -1.579674   -1.272713
     14          1           0        1.066589    0.534449   -1.993342
     15          1           0        0.383548    2.119395   -1.583368
     16          1           0       -0.750315    1.002240    2.041419
     17          1           0       -0.633983    2.616265    1.310761
     18          1           0       -2.184128    2.054891    1.983822
     19          1           0       -3.296992    2.574735   -0.257646
     20          1           0       -1.731385    3.108430   -0.900869
     21          1           0       -2.657898    1.844968   -1.747586
     22          1           0       -3.247885   -1.152258   -2.062764
     23          1           0       -2.804784   -2.805133   -1.567276
     24          1           0       -4.136869   -1.954348   -0.745738
     25          1           0       -2.988551   -2.339314    1.510170
     26          1           0       -1.683377   -3.210713    0.661768
     27          1           0       -1.290709   -1.851150    1.734099
     28         16           0        2.753623   -0.529688    0.105076
     29          8           0        2.326632   -1.207990    1.347924
     30          8           0        2.497839   -1.168262   -1.208759
     31          6           0        4.510088   -0.184080    0.237546
     32          1           0        4.669952    0.428218    1.128987
     33          1           0        4.989013   -1.159987    0.348806
     34          1           0        4.830398    0.324114   -0.671195
 ---------------------------------------------------------------------
                    Distance matrix (angstroms):
                    1          2          3          4          5
     1  O    0.000000
     2  N    1.267254   0.000000
     3  C    2.405041   1.476582   0.000000
     4  C    3.504296   2.279507   1.499132   0.000000
     5  C    3.519172   2.295300   2.370844   1.337476   0.000000
     6  C    4.922536   3.742650   3.805604   2.505833   1.488801
     7  S    5.847939   4.809342   4.939080   3.730238   2.820753
     8  C    2.403367   1.479869   2.491840   2.364087   1.515708
     9  C    2.884985   2.453577   3.531807   3.455200   2.560572
    10  C    3.037833   2.457180   3.563185   3.458303   2.540589
    11  C    3.054119   2.463449   1.530999   2.520748   3.461698
    12  C    2.906507   2.459492   1.532187   2.532208   3.449429
    13  H    4.518289   3.330170   2.273816   1.087377   2.148714
    14  H    5.638670   4.394855   4.128846   2.673489   2.140585
    15  H    5.210369   4.129758   4.471115   3.332111   2.158126
    16  H    3.191772   2.737453   3.474064   3.385263   2.752295
    17  H    3.907306   3.412918   4.432367   4.067412   2.929084
    18  H    2.576404   2.654795   3.960689   4.232764   3.472958
    19  H    2.764991   2.673941   4.005111   4.247379   3.465605
    20  H    4.025395   3.418358   4.458295   4.069707   2.911939
    21  H    3.414287   2.734690   3.522791   3.392697   2.727220
    22  H    3.405585   2.726676   2.179312   2.724851   3.400967
    23  H    4.051862   3.417373   2.170885   2.856721   4.030948
    24  H    2.817801   2.710201   2.160113   3.452244   4.275120
    25  H    2.636272   2.691072   2.155351   3.455931   4.254719
    26  H    3.935312   3.412434   2.169593   2.873271   4.027284
    27  H    3.191125   2.729484   2.178778   2.734389   3.376811
    28  S    6.526366   5.431485   4.987158   3.736573   3.567124
    29  O    6.155906   5.229382   4.747644   3.847957   3.903535
    30  O    6.699116   5.496833   4.783496   3.399711   3.531016
    31  C    8.224221   7.157567   6.780614   5.508975   5.219469
    32  H    8.340931   7.368929   7.166923   5.992455   5.557576
    33  H    8.784478   7.727081   7.179553   5.965277   5.894137
    34  H    8.670735   7.543284   7.197290   5.815451   5.427466
                    6          7          8          9         10
     6  C    0.000000
     7  S    1.845176   0.000000
     8  C    2.645396   3.661089   0.000000
     9  C    3.307171   3.538346   1.530325   0.000000
    10  C    3.225569   4.474788   1.532793   2.515931   0.000000
    11  C    4.779705   6.187729   3.569897   4.824432   4.163031
    12  C    4.795578   5.498406   3.530974   4.063763   4.821643
    13  H    2.821909   3.940595   3.410662   4.426810   4.426048
    14  H    1.091199   2.392352   3.522270   4.336654   4.040885
    15  H    1.095608   2.346409   2.839360   3.476455   2.889418
    16  H    3.511903   3.392878   2.176801   1.092781   3.474540
    17  H    3.171626   3.106892   2.175944   1.095250   2.740848
    18  H    4.333536   4.608507   2.146623   1.094167   2.761407
    19  H    4.272686   5.371253   2.156623   2.762973   1.096055
    20  H    3.085357   4.141546   2.181509   2.748821   1.095896
    21  H    3.392608   4.953287   2.180370   3.475868   1.094220
    22  H    4.561036   6.177528   3.521059   4.954426   3.732819
    23  H    5.216393   6.577292   4.441809   5.664196   5.125171
    24  H    5.673492   7.015860   4.044809   5.159172   4.544968
    25  H    5.677461   6.396263   3.994190   4.426203   5.147843
    26  H    5.240607   5.942252   4.413312   5.032992   5.676895
    27  H    4.584594   4.927795   3.459814   3.607963   4.916227
    28  S    3.001135   2.139852   4.767303   4.824109   5.901261
    29  O    3.851177   2.990519   4.841992   4.665735   6.208127
    30  O    2.967008   2.950774   4.977335   5.461567   5.970599
    31  C    4.354665   3.046847   6.358786   6.225126   7.376582
    32  H    4.728653   3.107965   6.498075   6.106297   7.525409
    33  H    5.172817   4.021102   7.088396   6.999538   8.195429
    34  H    4.326673   3.174649   6.630360   6.624383   7.465522
                   11         12         13         14         15
    11  C    0.000000
    12  C    2.521611   0.000000
    13  H    2.956652   2.988539   0.000000
    14  H    4.898620   5.117699   2.570629   0.000000
    15  H    5.312813   5.604879   3.758604   1.773888   0.000000
    16  H    4.931492   3.620173   4.236284   4.449636   3.958884
    17  H    5.694291   5.047570   4.946056   4.259460   3.107770
    18  H    5.117400   4.395013   5.265770   5.356934   4.395676
    19  H    4.506626   5.129720   5.276753   5.120180   3.938432
    20  H    5.146305   5.676618   4.944046   3.955696   2.432475
    21  H    3.746173   4.961506   4.238609   3.955965   3.058214
    22  H    1.096546   3.481908   3.171803   4.632978   4.911297
    23  H    1.097508   2.757613   2.888346   5.130484   5.866574
    24  H    1.094627   2.765806   3.983760   5.901407   6.142571
    25  H    2.767724   1.095102   4.008049   6.080894   6.389140
    26  H    2.747751   1.095952   2.930076   5.351463   6.141894
    27  H    3.478745   1.092736   3.208014   5.014155   5.438194
    28  S    6.186473   5.146902   3.429248   2.895139   3.935192
    29  O    6.075477   4.476815   3.663301   3.973394   4.841440
    30  O    5.687621   5.144231   2.735641   2.358659   3.926735
    31  C    7.967638   6.885775   5.144844   4.165433   5.064589
    32  H    8.468424   7.198505   5.794312   4.769114   5.346981
    33  H    8.314254   7.120397   5.458290   4.872595   5.974776
    34  H    8.284169   7.501302   5.417644   3.994818   4.881554
                   16         17         18         19         20
    16  H    0.000000
    17  H    1.775520   0.000000
    18  H    1.779666   1.780759   0.000000
    19  H    3.774123   3.090832   2.555950   0.000000
    20  H    3.749079   2.517504   3.104249   1.774737   0.000000
    21  H    4.325000   3.747615   3.767218   1.777898   1.780925
    22  H    5.265362   5.693410   5.271835   4.141418   4.669393
    23  H    5.633792   6.510532   6.051061   5.558811   6.047025
    24  H    5.289462   6.114728   5.228546   4.632086   5.607329
    25  H    4.056835   5.490129   4.492269   5.231461   6.088636
    26  H    4.530233   5.956181   5.452079   6.076223   6.509663
    27  H    2.920326   4.535229   4.014687   5.251731   5.633355
    28  S    4.286468   4.777716   5.881422   6.810209   5.862007
    29  O    3.851448   4.836481   5.603366   6.965056   6.336880
    30  O    5.081854   5.520773   6.519364   6.963814   6.022560
    31  C    5.686225   5.954426   7.271520   8.294985   7.147909
    32  H    5.526421   5.740411   7.096141   8.366749   7.230558
    33  H    6.362393   6.841310   8.028865   9.108996   8.058835
    34  H    6.241994   6.248325   7.697290   8.443387   7.131771
                   21         22         23         24         25
    21  H    0.000000
    22  H    3.070958   0.000000
    23  H    4.655913   1.781528   0.000000
    24  H    4.198316   1.779943   1.781351   0.000000
    25  H    5.313240   3.773886   3.117921   2.560460   0.000000
    26  H    5.684592   3.756061   2.527981   3.095020   1.783985
    27  H    5.258576   4.328413   3.755208   3.776356   1.780763
    28  S    6.193215   6.411335   6.234605   7.087483   6.182362
    29  O    6.614248   6.535376   6.113975   6.835007   5.436671
    30  O    5.995958   5.808866   5.561087   6.697139   6.234133
    31  C    7.709592   8.149536   7.977133   8.880910   7.905327
    32  H    7.998702   8.682011   8.578815   9.314038   8.152129
    33  H    8.479379   8.582670   8.192750   9.225549   8.147460
    34  H    7.716618   8.329153   8.300069   9.252504   8.543311
                   26         27         28         29         30
    26  H    0.000000
    27  H    1.775526   0.000000
    28  S    5.213902   4.555941   0.000000
    29  O    4.534521   3.694312   1.478880   0.000000
    30  O    5.015281   4.845601   1.483025   2.562717   0.000000
    31  C    6.906481   6.218363   1.795038   2.654960   2.666376
    32  H    7.336546   6.410239   2.374509   2.866402   3.568176
    33  H    6.987432   6.467739   2.335305   2.844084   2.938031
    34  H    7.530010   6.927132   2.375830   3.562728   2.820814
                   31         32         33         34
    31  C    0.000000
    32  H    1.093221   0.000000
    33  H    1.092768   1.798020   0.000000
    34  H    1.089344   1.810314   1.807793   0.000000
 Stoichiometry    C10H18NO3S2(2)
 Framework group  C1[X(C10H18NO3S2)]
 Deg. of freedom    96
 Full point group                 C1      NOp   1
 Largest Abelian subgroup         C1      NOp   1
 Largest concise Abelian subgroup C1      NOp   1
                         Standard orientation:                         
 ---------------------------------------------------------------------
 Center     Atomic      Atomic             Coordinates (Angstroms)
 Number     Number       Type             X           Y           Z
 ---------------------------------------------------------------------
      1          8           0       -3.668765    0.173623    1.040585
      2          7           0       -2.644134    0.050931    0.305051
      3          6           0       -2.173194   -1.262522   -0.178012
      4          6           0       -0.861048   -0.862252   -0.782539
      5          6           0       -0.593253    0.441301   -0.648837
      6          6           0        0.615346    1.120801   -1.191142
      7         16           0        1.950405    1.447258    0.040003
      8          6           0       -1.699815    1.169453    0.087835
      9          6           0       -1.284174    1.746885    1.442719
     10          6           0       -2.377917    2.245599   -0.767467
     11          6           0       -3.152290   -1.820279   -1.214465
     12          6           0       -2.026869   -2.224447    1.005578
     13          1           0       -0.206226   -1.577581   -1.274375
     14          1           0        1.072712    0.534462   -1.989728
     15          1           0        0.392107    2.120494   -1.579902
     16          1           0       -0.753276    1.002264    2.040929
     17          1           0       -0.631589    2.616747    1.312158
     18          1           0       -2.184639    2.058102    1.980780
     19          1           0       -3.290742    2.582576   -0.262955
     20          1           0       -1.722366    3.113479   -0.901727
     21          1           0       -2.649510    1.852877   -1.752009
     22          1           0       -3.245247   -1.142742   -2.071621
     23          1           0       -2.806999   -2.797067   -1.576656
     24          1           0       -4.139279   -1.944179   -0.757618
     25          1           0       -2.997463   -2.333867    1.500779
     26          1           0       -1.692072   -3.207284    0.654789
     27          1           0       -1.299126   -1.849635    1.729441
     28         16           0        2.752152   -0.535418    0.111858
     29          8           0        2.320567   -1.214005    1.352963
     30          8           0        2.498269   -1.172142   -1.203243
     31          6           0        4.509030   -0.193780    0.249068
     32          1           0        4.667995    0.417292    1.141511
     33          1           0        4.985543   -1.170841    0.360565
     34          1           0        4.832726    0.314604   -0.658366
 ---------------------------------------------------------------------
 Rotational constants (GHZ):           0.7713862           0.2775521           0.2436703
 Leave Link  202 at Mon Jun 17 21:28:02 2019, MaxMem=  8053063680 cpu:               0.0 elap:               0.0
 (Enter /data2/g16/g16/l301.exe)
 General basis read from cards:  (6D, 7F)
 Centers:      13     14     15     16     17     18     19     20     21     22
 Centers:      23     24     25     26     27     32     33     34
 6-31G
 S 1 1.00 0.000000000000
     Exponent=  4.0000000000D-01 Coefficients=  1.0000000000D+00
 P 1 1.00 0.000000000000
     Exponent=  7.5000000000D-01 Coefficients=  1.0000000000D+00
 ****
 Centers:       3      4      5      6      8      9     10     11     12     31
 6-31G
 S 1 1.00 0.000000000000
     Exponent=  8.7000000000D+00 Coefficients=  1.0000000000D+00
 P 1 1.00 0.000000000000
     Exponent=  5.0000000000D-02 Coefficients=  1.0000000000D+00
 D 1 1.00
     Exponent=  8.2000000000D-01 Coefficients=  1.0000000000D+00
 ****
 Centers:       2
 6-31G
 S 1 1.00 0.000000000000
     Exponent=  1.3700000000D+01 Coefficients=  1.0000000000D+00
 P 1 1.00 0.000000000000
     Exponent=  5.3000000000D-02 Coefficients=  1.0000000000D+00
 D 1 1.00 0.000000000000
     Exponent=  1.0150000000D+00 Coefficients=  1.0000000000D+00
 ****
 Centers:       1     29     30
 6-31G
 S 1 1.00
     Exponent=  1.6000000000D+01 Coefficients=  1.0000000000D+00
 P 1 1.00 0.000000000000
     Exponent=  6.5000000000D-02 Coefficients=  1.0000000000D+00
 D 1 1.00 0.000000000000
     Exponent=  1.1900000000D+00 Coefficients=  1.0000000000D+00
 D 1 1.00 0.000000000000
     Exponent=  1.8000000000D-01 Coefficients=  1.0000000000D+00
 ****
 Centers:       7     28
 6-31G
 S 1 1.00 0.000000000000
     Exponent=  7.5000000000D+00 Coefficients=  1.0000000000D+00
 P 1 1.00 0.000000000000
     Exponent=  4.1000000000D-02 Coefficients=  1.0000000000D+00
 D 1 1.00 0.000000000000
     Exponent=  4.7900000000D-01 Coefficients=  1.0000000000D+00
 ****
 Ernie: Thresh=  0.10000D-02 Tol=  0.10000D-05 Strict=F.
 There are   438 symmetry adapted cartesian basis functions of A   symmetry.
 There are   438 symmetry adapted basis functions of A   symmetry.
   438 basis functions,   722 primitive gaussians,   438 cartesian basis functions
    71 alpha electrons       70 beta electrons
       nuclear repulsion energy      1521.1280358516 Hartrees.
 IExCor= 1009 DFT=T Ex+Corr=PBE1PBE ExCW=0 ScaHFX=  0.250000
 ScaDFX=  0.750000  0.750000  1.000000  1.000000 ScalE2=  1.000000  1.000000
 IRadAn=      5 IRanWt=     -1 IRanGd=            0 ICorTp=0 IEmpDi=  4
 NAtoms=   34 NActive=   34 NUniq=   34 SFac= 1.00D+00 NAtFMM=   60 NAOKFM=F Big=F
 Integral buffers will be    131072 words long.
 Raffenetti 2 integral format.
 Two-electron integral symmetry is turned on.
 Leave Link  301 at Mon Jun 17 21:28:02 2019, MaxMem=  8053063680 cpu:               0.0 elap:               0.2
 (Enter /data2/g16/g16/l302.exe)
 NPDir=0 NMtPBC=     1 NCelOv=     1 NCel=       1 NClECP=     1 NCelD=      1
         NCelK=      1 NCelE2=     1 NClLst=     1 CellRange=     0.0.
 One-electron integrals computed using PRISM.
 One-electron integral symmetry used in STVInt
 NBasis=   438 RedAO= T EigKep=  6.65D-05  NBF=   438
 NBsUse=   438 1.00D-06 EigRej= -1.00D+00 NBFU=   438
 Precomputing XC quadrature grid using
 IXCGrd= 4 IRadAn=           5 IRanWt=          -1 IRanGd=           0 AccXCQ= 0.00D+00.
 Generated NRdTot=       0 NPtTot=           0 NUsed=           0 NTot=          32
 NSgBfM=   433   433   433   433   433 MxSgAt=    34 MxSgA2=    34.
 Leave Link  302 at Mon Jun 17 21:28:03 2019, MaxMem=  8053063680 cpu:               0.0 elap:               0.5
 (Enter /data2/g16/g16/l303.exe)
 DipDrv:  MaxL=1.
 Leave Link  303 at Mon Jun 17 21:28:03 2019, MaxMem=  8053063680 cpu:               0.0 elap:               0.1
 (Enter /data2/g16/g16/l401.exe)
 ExpMin= 4.10D-02 ExpMax= 2.19D+04 ExpMxC= 3.30D+03 IAcc=3 IRadAn=         5 AccDes= 0.00D+00
 Harris functional with IExCor= 1009 and IRadAn=       5 diagonalized for initial guess.
 HarFok:  IExCor= 1009 AccDes= 0.00D+00 IRadAn=         5 IDoV= 1 UseB2=F ITyADJ=14
 ICtDFT=  3500011 ScaDFX=  1.000000  1.000000  1.000000  1.000000
 FoFCou: FMM=F IPFlag=           0 FMFlag=      100000 FMFlg1=           0
         NFxFlg=           0 DoJE=T BraDBF=F KetDBF=T FulRan=T
         wScrn=  0.000000 ICntrl=       500 IOpCl=  0 I1Cent=   200000004 NGrid=           0
         NMat0=    1 NMatS0=      1 NMatT0=    0 NMatD0=    1 NMtDS0=    0 NMtDT0=    0
 Petite list used in FoFCou.
 Harris En= -1467.69857750479    
 JPrj=0 DoOrth=F DoCkMO=F.
 Initial guess <Sx>= 0.0000 <Sy>= 0.0000 <Sz>= 0.5000 <S**2>= 0.7500 S= 0.5000
 Leave Link  401 at Mon Jun 17 21:28:04 2019, MaxMem=  8053063680 cpu:               0.0 elap:               1.6
 (Enter /data2/g16/g16/l502.exe)
 Integral symmetry usage will be decided dynamically.
 UHF open shell SCF:
 Using DIIS extrapolation, IDIIS=  1040.
 NGot=  8053063680 LenX=  8052670277 LenY=  8052477992
 Requested convergence on RMS density matrix=1.00D-08 within 128 cycles.
 Requested convergence on MAX density matrix=1.00D-06.
 Requested convergence on             energy=1.00D-06.
 No special actions if energy rises.
 Fock matrices will be formed incrementally for  20 cycles.

 Cycle   1  Pass 1  IDiag  1:
 FoFJK:  IHMeth= 1 ICntrl=       0 DoSepK=F KAlg= 0 I1Cent=           0 FoldK=F
 IRaf= 840000000 NMat=       1 IRICut=       1 DoRegI=T DoRafI=F ISym2E= 0 IDoP0=0 IntGTp=1.
 FoFCou: FMM=F IPFlag=           0 FMFlag=      100000 FMFlg1=           0
         NFxFlg=           0 DoJE=F BraDBF=F KetDBF=F FulRan=T
         wScrn=  0.000000 ICntrl=         0 IOpCl=  1 I1Cent=           0 NGrid=           0
         NMat0=    1 NMatS0=      1 NMatT0=    0 NMatD0=    1 NMtDS0=    0 NMtDT0=    0
 Symmetry not used in FoFCou.
 E= -1466.93569691503    
 DIIS: error= 2.54D-02 at cycle   1 NSaved=   1.
 NSaved= 1 IEnMin= 1 EnMin= -1466.93569691503     IErMin= 1 ErrMin= 2.54D-02
 ErrMax= 2.54D-02  0.00D+00 EMaxC= 1.00D-01 BMatC= 2.97D+00 BMatP= 2.97D+00
 IDIUse=3 WtCom= 7.46D-01 WtEn= 2.54D-01
 Coeff-Com:  0.100D+01
 Coeff-En:   0.100D+01
 Coeff:      0.100D+01
 Gap=     0.226 Goal=   None    Shift=    0.000
 Gap=     0.363 Goal=   None    Shift=    0.000
 GapD=    0.226 DampG=1.000 DampE=0.500 DampFc=0.5000 IDamp=-1.
 Damping current iteration by 5.00D-01
 RMSDP=4.75D-03 MaxDP=4.12D-01              OVMax= 3.12D-01

 Cycle   2  Pass 1  IDiag  1:
 RMSU=  2.37D-03    CP:  9.92D-01
 E= -1467.06233425265     Delta-E=       -0.126637337617 Rises=F Damp=T
 DIIS: error= 1.04D-02 at cycle   2 NSaved=   2.
 NSaved= 2 IEnMin= 2 EnMin= -1467.06233425265     IErMin= 2 ErrMin= 1.04D-02
 ErrMax= 1.04D-02  0.00D+00 EMaxC= 1.00D-01 BMatC= 5.22D-01 BMatP= 2.97D+00
 IDIUse=3 WtCom= 8.96D-01 WtEn= 1.04D-01
 Coeff-Com:  0.226D+00 0.774D+00
 Coeff-En:   0.395D+00 0.605D+00
 Coeff:      0.244D+00 0.756D+00
 Gap=     0.128 Goal=   None    Shift=    0.000
 Gap=     0.185 Goal=   None    Shift=    0.000
 RMSDP=1.68D-03 MaxDP=1.19D-01 DE=-1.27D-01 OVMax= 2.88D-01

 Cycle   3  Pass 1  IDiag  1:
 RMSU=  1.39D-03    CP:  9.82D-01  6.10D-01
 E= -1467.46628059426     Delta-E=       -0.403946341614 Rises=F Damp=F
 DIIS: error= 9.63D-03 at cycle   3 NSaved=   3.
 NSaved= 3 IEnMin= 3 EnMin= -1467.46628059426     IErMin= 3 ErrMin= 9.63D-03
 ErrMax= 9.63D-03  0.00D+00 EMaxC= 1.00D-01 BMatC= 3.54D-01 BMatP= 5.22D-01
 IDIUse=3 WtCom= 9.04D-01 WtEn= 9.63D-02
 Coeff-Com:  0.530D-01 0.446D+00 0.501D+00
 Coeff-En:   0.000D+00 0.000D+00 0.100D+01
 Coeff:      0.479D-01 0.403D+00 0.549D+00
 Gap=     0.145 Goal=   None    Shift=    0.000
 Gap=     0.223 Goal=   None    Shift=    0.000
 RMSDP=9.48D-04 MaxDP=6.56D-02 DE=-4.04D-01 OVMax= 1.09D-01

 Cycle   4  Pass 1  IDiag  1:
 RMSU=  6.28D-04    CP:  9.87D-01  7.40D-01  5.41D-01
 E= -1467.53756087822     Delta-E=       -0.071280283955 Rises=F Damp=F
 DIIS: error= 2.96D-03 at cycle   4 NSaved=   4.
 NSaved= 4 IEnMin= 4 EnMin= -1467.53756087822     IErMin= 4 ErrMin= 2.96D-03
 ErrMax= 2.96D-03  0.00D+00 EMaxC= 1.00D-01 BMatC= 4.71D-02 BMatP= 3.54D-01
 IDIUse=3 WtCom= 9.70D-01 WtEn= 2.96D-02
 Coeff-Com: -0.115D-01 0.659D-01 0.286D+00 0.660D+00
 Coeff-En:   0.000D+00 0.000D+00 0.109D+00 0.891D+00
 Coeff:     -0.112D-01 0.639D-01 0.281D+00 0.666D+00
 Gap=     0.145 Goal=   None    Shift=    0.000
 Gap=     0.202 Goal=   None    Shift=    0.000
 RMSDP=3.20D-04 MaxDP=1.85D-02 DE=-7.13D-02 OVMax= 3.35D-02

 Cycle   5  Pass 1  IDiag  1:
 RMSU=  2.01D-04    CP:  9.86D-01  7.23D-01  6.56D-01  7.00D-01
 E= -1467.54741869820     Delta-E=       -0.009857819982 Rises=F Damp=F
 DIIS: error= 7.87D-04 at cycle   5 NSaved=   5.
 NSaved= 5 IEnMin= 5 EnMin= -1467.54741869820     IErMin= 5 ErrMin= 7.87D-04
 ErrMax= 7.87D-04  0.00D+00 EMaxC= 1.00D-01 BMatC= 3.98D-03 BMatP= 4.71D-02
 IDIUse=3 WtCom= 9.92D-01 WtEn= 7.87D-03
 Coeff-Com: -0.844D-02 0.147D-01 0.130D+00 0.370D+00 0.493D+00
 Coeff-En:   0.000D+00 0.000D+00 0.000D+00 0.000D+00 0.100D+01
 Coeff:     -0.837D-02 0.146D-01 0.129D+00 0.367D+00 0.497D+00
 Gap=     0.145 Goal=   None    Shift=    0.000
 Gap=     0.205 Goal=   None    Shift=    0.000
 RMSDP=1.09D-04 MaxDP=5.49D-03 DE=-9.86D-03 OVMax= 1.25D-02

 Cycle   6  Pass 1  IDiag  1:
 RMSU=  6.91D-05    CP:  9.85D-01  7.25D-01  6.52D-01  7.57D-01  6.23D-01
 E= -1467.54828195694     Delta-E=       -0.000863258747 Rises=F Damp=F
 DIIS: error= 2.38D-04 at cycle   6 NSaved=   6.
 NSaved= 6 IEnMin= 6 EnMin= -1467.54828195694     IErMin= 6 ErrMin= 2.38D-04
 ErrMax= 2.38D-04  0.00D+00 EMaxC= 1.00D-01 BMatC= 4.09D-04 BMatP= 3.98D-03
 IDIUse=3 WtCom= 9.98D-01 WtEn= 2.38D-03
 Coeff-Com: -0.280D-02 0.102D-02 0.365D-01 0.116D+00 0.273D+00 0.576D+00
 Coeff-En:   0.000D+00 0.000D+00 0.000D+00 0.000D+00 0.444D-01 0.956D+00
 Coeff:     -0.280D-02 0.101D-02 0.364D-01 0.116D+00 0.273D+00 0.577D+00
 Gap=     0.147 Goal=   None    Shift=    0.000
 Gap=     0.205 Goal=   None    Shift=    0.000
 RMSDP=3.58D-05 MaxDP=2.17D-03 DE=-8.63D-04 OVMax= 5.19D-03

 Cycle   7  Pass 1  IDiag  1:
 RMSU=  2.55D-05    CP:  9.85D-01  7.22D-01  6.58D-01  7.58D-01  6.70D-01
                    CP:  7.00D-01
 E= -1467.54837679856     Delta-E=       -0.000094841614 Rises=F Damp=F
 DIIS: error= 1.24D-04 at cycle   7 NSaved=   7.
 NSaved= 7 IEnMin= 7 EnMin= -1467.54837679856     IErMin= 7 ErrMin= 1.24D-04
 ErrMax= 1.24D-04  0.00D+00 EMaxC= 1.00D-01 BMatC= 6.78D-05 BMatP= 4.09D-04
 IDIUse=3 WtCom= 9.99D-01 WtEn= 1.24D-03
 Coeff-Com: -0.214D-04-0.246D-02-0.267D-02-0.138D-03 0.599D-01 0.329D+00
 Coeff-Com:  0.616D+00
 Coeff-En:   0.000D+00 0.000D+00 0.000D+00 0.000D+00 0.000D+00 0.700D-01
 Coeff-En:   0.930D+00
 Coeff:     -0.214D-04-0.246D-02-0.267D-02-0.138D-03 0.598D-01 0.329D+00
 Coeff:      0.616D+00
 Gap=     0.147 Goal=   None    Shift=    0.000
 Gap=     0.206 Goal=   None    Shift=    0.000
 RMSDP=1.49D-05 MaxDP=9.15D-04 DE=-9.48D-05 OVMax= 1.16D-03

 Cycle   8  Pass 1  IDiag  1:
 RMSU=  1.04D-05    CP:  9.85D-01  7.23D-01  6.58D-01  7.58D-01  7.04D-01
                    CP:  7.97D-01  8.10D-01
 E= -1467.54839320540     Delta-E=       -0.000016406838 Rises=F Damp=F
 DIIS: error= 3.07D-05 at cycle   8 NSaved=   8.
 NSaved= 8 IEnMin= 8 EnMin= -1467.54839320540     IErMin= 8 ErrMin= 3.07D-05
 ErrMax= 3.07D-05  0.00D+00 EMaxC= 1.00D-01 BMatC= 4.91D-06 BMatP= 6.78D-05
 IDIUse=1 WtCom= 1.00D+00 WtEn= 0.00D+00
 Coeff-Com:  0.416D-03-0.112D-02-0.540D-02-0.144D-01-0.159D-01 0.662D-01
 Coeff-Com:  0.217D+00 0.753D+00
 Coeff:      0.416D-03-0.112D-02-0.540D-02-0.144D-01-0.159D-01 0.662D-01
 Coeff:      0.217D+00 0.753D+00
 Gap=     0.147 Goal=   None    Shift=    0.000
 Gap=     0.205 Goal=   None    Shift=    0.000
 RMSDP=5.04D-06 MaxDP=5.38D-04 DE=-1.64D-05 OVMax= 1.25D-03

 Cycle   9  Pass 1  IDiag  1:
 RMSU=  4.15D-06    CP:  9.85D-01  7.23D-01  6.57D-01  7.61D-01  7.03D-01
                    CP:  8.26D-01  8.48D-01  9.24D-01
 E= -1467.54839470187     Delta-E=       -0.000001496470 Rises=F Damp=F
 DIIS: error= 2.90D-05 at cycle   9 NSaved=   9.
 NSaved= 9 IEnMin= 9 EnMin= -1467.54839470187     IErMin= 9 ErrMin= 2.90D-05
 ErrMax= 2.90D-05  0.00D+00 EMaxC= 1.00D-01 BMatC= 3.07D-06 BMatP= 4.91D-06
 IDIUse=1 WtCom= 1.00D+00 WtEn= 0.00D+00
 Coeff-Com:  0.321D-03-0.331D-03-0.297D-02-0.958D-02-0.258D-01-0.272D-01
 Coeff-Com: -0.108D-01 0.489D+00 0.588D+00
 Coeff:      0.321D-03-0.331D-03-0.297D-02-0.958D-02-0.258D-01-0.272D-01
 Coeff:     -0.108D-01 0.489D+00 0.588D+00
 Gap=     0.147 Goal=   None    Shift=    0.000
 Gap=     0.205 Goal=   None    Shift=    0.000
 RMSDP=3.41D-06 MaxDP=2.42D-04 DE=-1.50D-06 OVMax= 2.76D-04

 Cycle  10  Pass 1  IDiag  1:
 RMSU=  2.30D-06    CP:  9.85D-01  7.22D-01  6.57D-01  7.60D-01  7.08D-01
                    CP:  8.44D-01  8.91D-01  1.06D+00  8.63D-01
 E= -1467.54839539724     Delta-E=       -0.000000695374 Rises=F Damp=F
 DIIS: error= 1.36D-05 at cycle  10 NSaved=  10.
 NSaved=10 IEnMin=10 EnMin= -1467.54839539724     IErMin=10 ErrMin= 1.36D-05
 ErrMax= 1.36D-05  0.00D+00 EMaxC= 1.00D-01 BMatC= 5.22D-07 BMatP= 3.07D-06
 IDIUse=1 WtCom= 1.00D+00 WtEn= 0.00D+00
 Coeff-Com:  0.986D-04 0.967D-04-0.147D-03-0.159D-02-0.120D-01-0.317D-01
 Coeff-Com: -0.716D-01 0.111D+00 0.341D+00 0.665D+00
 Coeff:      0.986D-04 0.967D-04-0.147D-03-0.159D-02-0.120D-01-0.317D-01
 Coeff:     -0.716D-01 0.111D+00 0.341D+00 0.665D+00
 Gap=     0.147 Goal=   None    Shift=    0.000
 Gap=     0.206 Goal=   None    Shift=    0.000
 RMSDP=1.61D-06 MaxDP=1.15D-04 DE=-6.95D-07 OVMax= 3.02D-04

 Cycle  11  Pass 1  IDiag  1:
 RMSU=  9.73D-07    CP:  9.85D-01  7.22D-01  6.57D-01  7.60D-01  7.08D-01
                    CP:  8.51D-01  8.98D-01  1.16D+00  9.86D-01  8.52D-01
 E= -1467.54839555398     Delta-E=       -0.000000156739 Rises=F Damp=F
 DIIS: error= 6.54D-06 at cycle  11 NSaved=  11.
 NSaved=11 IEnMin=11 EnMin= -1467.54839555398     IErMin=11 ErrMin= 6.54D-06
 ErrMax= 6.54D-06  0.00D+00 EMaxC= 1.00D-01 BMatC= 1.07D-07 BMatP= 5.22D-07
 IDIUse=1 WtCom= 1.00D+00 WtEn= 0.00D+00
 Coeff-Com:  0.215D-05 0.789D-04 0.451D-03 0.865D-03-0.206D-02-0.104D-01
 Coeff-Com: -0.368D-01-0.209D-01 0.579D-01 0.362D+00 0.649D+00
 Coeff:      0.215D-05 0.789D-04 0.451D-03 0.865D-03-0.206D-02-0.104D-01
 Coeff:     -0.368D-01-0.209D-01 0.579D-01 0.362D+00 0.649D+00
 Gap=     0.147 Goal=   None    Shift=    0.000
 Gap=     0.206 Goal=   None    Shift=    0.000
 RMSDP=6.52D-07 MaxDP=4.54D-05 DE=-1.57D-07 OVMax= 1.15D-04

 Cycle  12  Pass 1  IDiag  1:
 RMSU=  4.41D-07    CP:  9.85D-01  7.22D-01  6.57D-01  7.60D-01  7.08D-01
                    CP:  8.53D-01  8.96D-01  1.17D+00  1.04D+00  9.95D-01
                    CP:  8.08D-01
 E= -1467.54839558039     Delta-E=       -0.000000026414 Rises=F Damp=F
 DIIS: error= 2.58D-06 at cycle  12 NSaved=  12.
 NSaved=12 IEnMin=12 EnMin= -1467.54839558039     IErMin=12 ErrMin= 2.58D-06
 ErrMax= 2.58D-06  0.00D+00 EMaxC= 1.00D-01 BMatC= 2.73D-08 BMatP= 1.07D-07
 IDIUse=1 WtCom= 1.00D+00 WtEn= 0.00D+00
 Coeff-Com: -0.118D-04 0.244D-04 0.310D-03 0.793D-03 0.595D-03-0.131D-02
 Coeff-Com: -0.122D-01-0.334D-01-0.304D-01 0.112D+00 0.409D+00 0.554D+00
 Coeff:     -0.118D-04 0.244D-04 0.310D-03 0.793D-03 0.595D-03-0.131D-02
 Coeff:     -0.122D-01-0.334D-01-0.304D-01 0.112D+00 0.409D+00 0.554D+00
 Gap=     0.147 Goal=   None    Shift=    0.000
 Gap=     0.206 Goal=   None    Shift=    0.000
 RMSDP=3.05D-07 MaxDP=2.18D-05 DE=-2.64D-08 OVMax= 2.65D-05

 Cycle  13  Pass 1  IDiag  1:
 RMSU=  1.92D-07    CP:  9.85D-01  7.22D-01  6.57D-01  7.60D-01  7.08D-01
                    CP:  8.54D-01  8.97D-01  1.17D+00  1.05D+00  1.06D+00
                    CP:  9.23D-01  8.38D-01
 E= -1467.54839558642     Delta-E=       -0.000000006028 Rises=F Damp=F
 DIIS: error= 9.91D-07 at cycle  13 NSaved=  13.
 NSaved=13 IEnMin=13 EnMin= -1467.54839558642     IErMin=13 ErrMin= 9.91D-07
 ErrMax= 9.91D-07  0.00D+00 EMaxC= 1.00D-01 BMatC= 4.34D-09 BMatP= 2.73D-08
 IDIUse=1 WtCom= 1.00D+00 WtEn= 0.00D+00
 Coeff-Com: -0.375D-05-0.104D-04 0.612D-04 0.207D-03 0.903D-03 0.273D-02
 Coeff-Com:  0.373D-02-0.100D-01-0.344D-01-0.324D-01 0.640D-01 0.313D+00
 Coeff-Com:  0.692D+00
 Coeff:     -0.375D-05-0.104D-04 0.612D-04 0.207D-03 0.903D-03 0.273D-02
 Coeff:      0.373D-02-0.100D-01-0.344D-01-0.324D-01 0.640D-01 0.313D+00
 Coeff:      0.692D+00
 Gap=     0.147 Goal=   None    Shift=    0.000
 Gap=     0.206 Goal=   None    Shift=    0.000
 RMSDP=1.27D-07 MaxDP=1.24D-05 DE=-6.03D-09 OVMax= 2.12D-05

 Cycle  14  Pass 1  IDiag  1:
 RMSU=  1.05D-07    CP:  9.85D-01  7.22D-01  6.57D-01  7.60D-01  7.08D-01
                    CP:  8.54D-01  8.96D-01  1.17D+00  1.06D+00  1.07D+00
                    CP:  9.57D-01  8.63D-01  8.40D-01
 E= -1467.54839558756     Delta-E=       -0.000000001145 Rises=F Damp=F
 DIIS: error= 5.35D-07 at cycle  14 NSaved=  14.
 NSaved=14 IEnMin=14 EnMin= -1467.54839558756     IErMin=14 ErrMin= 5.35D-07
 ErrMax= 5.35D-07  0.00D+00 EMaxC= 1.00D-01 BMatC= 8.81D-10 BMatP= 4.34D-09
 IDIUse=1 WtCom= 1.00D+00 WtEn= 0.00D+00
 Coeff-Com:  0.486D-06-0.118D-04-0.281D-04-0.446D-04 0.343D-03 0.165D-02
 Coeff-Com:  0.414D-02 0.155D-02-0.127D-01-0.396D-01-0.545D-01 0.337D-01
 Coeff-Com:  0.370D+00 0.695D+00
 Coeff:      0.486D-06-0.118D-04-0.281D-04-0.446D-04 0.343D-03 0.165D-02
 Coeff:      0.414D-02 0.155D-02-0.127D-01-0.396D-01-0.545D-01 0.337D-01
 Coeff:      0.370D+00 0.695D+00
 Gap=     0.147 Goal=   None    Shift=    0.000
 Gap=     0.206 Goal=   None    Shift=    0.000
 RMSDP=7.34D-08 MaxDP=4.76D-06 DE=-1.14D-09 OVMax= 6.00D-06

 Cycle  15  Pass 1  IDiag  1:
 RMSU=  3.44D-08    CP:  9.85D-01  7.22D-01  6.57D-01  7.60D-01  7.08D-01
                    CP:  8.54D-01  8.96D-01  1.17D+00  1.06D+00  1.08D+00
                    CP:  9.81D-01  9.46D-01  9.80D-01  7.89D-01
 E= -1467.54839558781     Delta-E=       -0.000000000243 Rises=F Damp=F
 DIIS: error= 1.27D-07 at cycle  15 NSaved=  15.
 NSaved=15 IEnMin=15 EnMin= -1467.54839558781     IErMin=15 ErrMin= 1.27D-07
 ErrMax= 1.27D-07  0.00D+00 EMaxC= 1.00D-01 BMatC= 5.85D-11 BMatP= 8.81D-10
 IDIUse=1 WtCom= 1.00D+00 WtEn= 0.00D+00
 Coeff-Com:  0.689D-06-0.208D-05-0.201D-04-0.476D-04-0.929D-05 0.218D-03
 Coeff-Com:  0.877D-03 0.214D-02 0.242D-03-0.813D-02-0.282D-01-0.349D-01
 Coeff-Com:  0.385D-01 0.225D+00 0.805D+00
 Coeff:      0.689D-06-0.208D-05-0.201D-04-0.476D-04-0.929D-05 0.218D-03
 Coeff:      0.877D-03 0.214D-02 0.242D-03-0.813D-02-0.282D-01-0.349D-01
 Coeff:      0.385D-01 0.225D+00 0.805D+00
 Gap=     0.147 Goal=   None    Shift=    0.000
 Gap=     0.206 Goal=   None    Shift=    0.000
 RMSDP=1.99D-08 MaxDP=1.22D-06 DE=-2.43D-10 OVMax= 1.83D-06

 Cycle  16  Pass 1  IDiag  1:
 RMSU=  1.36D-08    CP:  9.85D-01  7.22D-01  6.57D-01  7.60D-01  7.08D-01
                    CP:  8.54D-01  8.96D-01  1.17D+00  1.06D+00  1.08D+00
                    CP:  9.80D-01  9.53D-01  1.02D+00  8.78D-01  9.03D-01
 E= -1467.54839558788     Delta-E=       -0.000000000067 Rises=F Damp=F
 DIIS: error= 4.41D-08 at cycle  16 NSaved=  16.
 NSaved=16 IEnMin=16 EnMin= -1467.54839558788     IErMin=16 ErrMin= 4.41D-08
 ErrMax= 4.41D-08  0.00D+00 EMaxC= 1.00D-01 BMatC= 1.10D-11 BMatP= 5.85D-11
 IDIUse=1 WtCom= 1.00D+00 WtEn= 0.00D+00
 Coeff-Com:  0.706D-07 0.106D-05-0.413D-05-0.113D-04-0.531D-04-0.146D-03
 Coeff-Com: -0.248D-03 0.636D-03 0.183D-02 0.261D-02-0.337D-02-0.196D-01
 Coeff-Com: -0.342D-01-0.168D-01 0.323D+00 0.747D+00
 Coeff:      0.706D-07 0.106D-05-0.413D-05-0.113D-04-0.531D-04-0.146D-03
 Coeff:     -0.248D-03 0.636D-03 0.183D-02 0.261D-02-0.337D-02-0.196D-01
 Coeff:     -0.342D-01-0.168D-01 0.323D+00 0.747D+00
 Gap=     0.147 Goal=   None    Shift=    0.000
 Gap=     0.206 Goal=   None    Shift=    0.000
 RMSDP=7.94D-09 MaxDP=4.29D-07 DE=-6.73D-11 OVMax= 7.52D-07

 SCF Done:  E(UPBE1PBE) =  -1467.54839559     A.U. after   16 cycles
            NFock= 16  Conv=0.79D-08     -V/T= 2.0052
 <Sx>= 0.0000 <Sy>= 0.0000 <Sz>= 0.5000 <S**2>= 0.7550 S= 0.5025
 <L.S>=  0.00000000000    
 KE= 1.459891688241D+03 PE=-6.497666578046D+03 EE= 2.049098458366D+03
 Annihilation of the first spin contaminant:
 S**2 before annihilation     0.7550,   after     0.7500
 Leave Link  502 at Mon Jun 17 21:30:42 2019, MaxMem=  8053063680 cpu:               0.0 elap:             157.8
 (Enter /data2/g16/g16/l601.exe)
 Copying SCF densities to generalized density rwf, IOpCl= 1 IROHF=0.

 **********************************************************************

            Population analysis using the SCF Density.

 **********************************************************************

 Orbital symmetries:
 Alpha Orbitals:
       Occupied  (A) (A) (A) (A) (A) (A) (A) (A) (A) (A) (A) (A)
                 (A) (A) (A) (A) (A) (A) (A) (A) (A) (A) (A) (A)
                 (A) (A) (A) (A) (A) (A) (A) (A) (A) (A) (A) (A)
                 (A) (A) (A) (A) (A) (A) (A) (A) (A) (A) (A) (A)
                 (A) (A) (A) (A) (A) (A) (A) (A) (A) (A) (A) (A)
                 (A) (A) (A) (A) (A) (A) (A) (A) (A) (A) (A)
       Virtual   (A) (A) (A) (A) (A) (A) (A) (A) (A) (A) (A) (A)
                 (A) (A) (A) (A) (A) (A) (A) (A) (A) (A) (A) (A)
                 (A) (A) (A) (A) (A) (A) (A) (A) (A) (A) (A) (A)
                 (A) (A) (A) (A) (A) (A) (A) (A) (A) (A) (A) (A)
                 (A) (A) (A) (A) (A) (A) (A) (A) (A) (A) (A) (A)
                 (A) (A) (A) (A) (A) (A) (A) (A) (A) (A) (A) (A)
                 (A) (A) (A) (A) (A) (A) (A) (A) (A) (A) (A) (A)
                 (A) (A) (A) (A) (A) (A) (A) (A) (A) (A) (A) (A)
                 (A) (A) (A) (A) (A) (A) (A) (A) (A) (A) (A) (A)
                 (A) (A) (A) (A) (A) (A) (A) (A) (A) (A) (A) (A)
                 (A) (A) (A) (A) (A) (A) (A) (A) (A) (A) (A) (A)
                 (A) (A) (A) (A) (A) (A) (A) (A) (A) (A) (A) (A)
                 (A) (A) (A) (A) (A) (A) (A) (A) (A) (A) (A) (A)
                 (A) (A) (A) (A) (A) (A) (A) (A) (A) (A) (A) (A)
                 (A) (A) (A) (A) (A) (A) (A) (A) (A) (A) (A) (A)
                 (A) (A) (A) (A) (A) (A) (A) (A) (A) (A) (A) (A)
                 (A) (A) (A) (A) (A) (A) (A) (A) (A) (A) (A) (A)
                 (A) (A) (A) (A) (A) (A) (A) (A) (A) (A) (A) (A)
                 (A) (A) (A) (A) (A) (A) (A) (A) (A) (A) (A) (A)
                 (A) (A) (A) (A) (A) (A) (A) (A) (A) (A) (A) (A)
                 (A) (A) (A) (A) (A) (A) (A) (A) (A) (A) (A) (A)
                 (A) (A) (A) (A) (A) (A) (A) (A) (A) (A) (A) (A)
                 (A) (A) (A) (A) (A) (A) (A) (A) (A) (A) (A) (A)
                 (A) (A) (A) (A) (A) (A) (A) (A) (A) (A) (A) (A)
                 (A) (A) (A) (A) (A) (A) (A) (A) (A) (A) (A) (A)
                 (A) (A) (A) (A) (A) (A) (A) (A) (A) (A) (A) (A)
                 (A) (A) (A) (A) (A) (A) (A) (A) (A) (A) (A) (A)
                 (A) (A) (A) (A) (A) (A) (A) (A) (A) (A) (A) (A)
                 (A) (A) (A) (A) (A) (A) (A) (A) (A) (A) (A) (A)
                 (A) (A) (A) (A) (A) (A) (A) (A) (A) (A) (A) (A)
                 (A) (A) (A) (A) (A) (A) (A)
 Beta  Orbitals:
       Occupied  (A) (A) (A) (A) (A) (A) (A) (A) (A) (A) (A) (A)
                 (A) (A) (A) (A) (A) (A) (A) (A) (A) (A) (A) (A)
                 (A) (A) (A) (A) (A) (A) (A) (A) (A) (A) (A) (A)
                 (A) (A) (A) (A) (A) (A) (A) (A) (A) (A) (A) (A)
                 (A) (A) (A) (A) (A) (A) (A) (A) (A) (A) (A) (A)
                 (A) (A) (A) (A) (A) (A) (A) (A) (A) (A)
       Virtual   (A) (A) (A) (A) (A) (A) (A) (A) (A) (A) (A) (A)
                 (A) (A) (A) (A) (A) (A) (A) (A) (A) (A) (A) (A)
                 (A) (A) (A) (A) (A) (A) (A) (A) (A) (A) (A) (A)
                 (A) (A) (A) (A) (A) (A) (A) (A) (A) (A) (A) (A)
                 (A) (A) (A) (A) (A) (A) (A) (A) (A) (A) (A) (A)
                 (A) (A) (A) (A) (A) (A) (A) (A) (A) (A) (A) (A)
                 (A) (A) (A) (A) (A) (A) (A) (A) (A) (A) (A) (A)
                 (A) (A) (A) (A) (A) (A) (A) (A) (A) (A) (A) (A)
                 (A) (A) (A) (A) (A) (A) (A) (A) (A) (A) (A) (A)
                 (A) (A) (A) (A) (A) (A) (A) (A) (A) (A) (A) (A)
                 (A) (A) (A) (A) (A) (A) (A) (A) (A) (A) (A) (A)
                 (A) (A) (A) (A) (A) (A) (A) (A) (A) (A) (A) (A)
                 (A) (A) (A) (A) (A) (A) (A) (A) (A) (A) (A) (A)
                 (A) (A) (A) (A) (A) (A) (A) (A) (A) (A) (A) (A)
                 (A) (A) (A) (A) (A) (A) (A) (A) (A) (A) (A) (A)
                 (A) (A) (A) (A) (A) (A) (A) (A) (A) (A) (A) (A)
                 (A) (A) (A) (A) (A) (A) (A) (A) (A) (A) (A) (A)
                 (A) (A) (A) (A) (A) (A) (A) (A) (A) (A) (A) (A)
                 (A) (A) (A) (A) (A) (A) (A) (A) (A) (A) (A) (A)
                 (A) (A) (A) (A) (A) (A) (A) (A) (A) (A) (A) (A)
                 (A) (A) (A) (A) (A) (A) (A) (A) (A) (A) (A) (A)
                 (A) (A) (A) (A) (A) (A) (A) (A) (A) (A) (A) (A)
                 (A) (A) (A) (A) (A) (A) (A) (A) (A) (A) (A) (A)
                 (A) (A) (A) (A) (A) (A) (A) (A) (A) (A) (A) (A)
                 (A) (A) (A) (A) (A) (A) (A) (A) (A) (A) (A) (A)
                 (A) (A) (A) (A) (A) (A) (A) (A) (A) (A) (A) (A)
                 (A) (A) (A) (A) (A) (A) (A) (A) (A) (A) (A) (A)
                 (A) (A) (A) (A) (A) (A) (A) (A) (A) (A) (A) (A)
                 (A) (A) (A) (A) (A) (A) (A) (A) (A) (A) (A) (A)
                 (A) (A) (A) (A) (A) (A) (A) (A) (A) (A) (A) (A)
                 (A) (A) (A) (A) (A) (A) (A) (A)
 The electronic state is 2-A.
 Alpha  occ. eigenvalues --  -89.28801 -89.08190 -19.24749 -19.24220 -19.22639
 Alpha  occ. eigenvalues --  -14.48515 -10.29732 -10.29700 -10.29122 -10.28717
 Alpha  occ. eigenvalues --  -10.26125 -10.24855 -10.23327 -10.22857 -10.22561
 Alpha  occ. eigenvalues --  -10.22312  -8.22120  -8.04433  -6.15843  -6.15799
 Alpha  occ. eigenvalues --   -6.15684  -5.98273  -5.97898  -5.97174  -1.14721
 Alpha  occ. eigenvalues --   -1.13466  -1.04482  -0.93287  -0.85923  -0.84028
 Alpha  occ. eigenvalues --   -0.82243  -0.77237  -0.74914  -0.72102  -0.71233
 Alpha  occ. eigenvalues --   -0.70588  -0.64471  -0.62455  -0.58968  -0.56423
 Alpha  occ. eigenvalues --   -0.53159  -0.51830  -0.51306  -0.50749  -0.50188
 Alpha  occ. eigenvalues --   -0.48513  -0.47404  -0.46359  -0.46176  -0.45127
 Alpha  occ. eigenvalues --   -0.44650  -0.43954  -0.42779  -0.42434  -0.41662
 Alpha  occ. eigenvalues --   -0.40504  -0.40093  -0.39040  -0.38864  -0.36500
 Alpha  occ. eigenvalues --   -0.36361  -0.36188  -0.35748  -0.35656  -0.34537
 Alpha  occ. eigenvalues --   -0.33588  -0.31777  -0.28315  -0.27231  -0.26894
 Alpha  occ. eigenvalues --   -0.20192
 Alpha virt. eigenvalues --   -0.05451  -0.02448   0.00471   0.01073   0.02634
 Alpha virt. eigenvalues --    0.03409   0.03689   0.04587   0.04819   0.04989
 Alpha virt. eigenvalues --    0.05446   0.05802   0.06159   0.06289   0.06851
 Alpha virt. eigenvalues --    0.07844   0.08239   0.08376   0.09040   0.09320
 Alpha virt. eigenvalues --    0.09405   0.09646   0.10364   0.10758   0.11016
 Alpha virt. eigenvalues --    0.11377   0.11823   0.12676   0.13021   0.13696
 Alpha virt. eigenvalues --    0.14031   0.14408   0.14706   0.15014   0.15557
 Alpha virt. eigenvalues --    0.15980   0.16656   0.16764   0.16939   0.17751
 Alpha virt. eigenvalues --    0.18375   0.18716   0.19257   0.19435   0.19647
 Alpha virt. eigenvalues --    0.20008   0.20852   0.21242   0.22046   0.22537
 Alpha virt. eigenvalues --    0.23186   0.23229   0.23970   0.24661   0.25438
 Alpha virt. eigenvalues --    0.26127   0.26328   0.26747   0.27129   0.27725
 Alpha virt. eigenvalues --    0.27949   0.28390   0.29089   0.29221   0.29800
 Alpha virt. eigenvalues --    0.30403   0.30617   0.31475   0.31729   0.31780
 Alpha virt. eigenvalues --    0.32233   0.32959   0.33511   0.34562   0.34985
 Alpha virt. eigenvalues --    0.35581   0.36808   0.37725   0.38144   0.40453
 Alpha virt. eigenvalues --    0.41728   0.41937   0.42214   0.43517   0.44210
 Alpha virt. eigenvalues --    0.46103   0.47094   0.47573   0.48109   0.50216
 Alpha virt. eigenvalues --    0.50695   0.50914   0.51810   0.51946   0.52881
 Alpha virt. eigenvalues --    0.53677   0.54042   0.54604   0.55466   0.56159
 Alpha virt. eigenvalues --    0.57118   0.58119   0.58226   0.59852   0.60549
 Alpha virt. eigenvalues --    0.60965   0.61908   0.62675   0.63150   0.63758
 Alpha virt. eigenvalues --    0.64215   0.64877   0.65335   0.65928   0.66668
 Alpha virt. eigenvalues --    0.67791   0.68125   0.68717   0.70071   0.71043
 Alpha virt. eigenvalues --    0.72087   0.72845   0.73164   0.73965   0.74220
 Alpha virt. eigenvalues --    0.74760   0.75882   0.76461   0.77210   0.78363
 Alpha virt. eigenvalues --    0.79031   0.79782   0.80796   0.81876   0.82174
 Alpha virt. eigenvalues --    0.82575   0.83217   0.83812   0.84877   0.85660
 Alpha virt. eigenvalues --    0.86050   0.87076   0.87945   0.88377   0.88692
 Alpha virt. eigenvalues --    0.89214   0.89830   0.90421   0.90961   0.91187
 Alpha virt. eigenvalues --    0.91536   0.92962   0.94183   0.94827   0.95436
 Alpha virt. eigenvalues --    0.96392   0.97383   0.97925   0.98095   0.99617
 Alpha virt. eigenvalues --    0.99740   1.01900   1.02223   1.03459   1.04537
 Alpha virt. eigenvalues --    1.04616   1.07732   1.08614   1.09149   1.11945
 Alpha virt. eigenvalues --    1.12484   1.14643   1.15002   1.15801   1.16731
 Alpha virt. eigenvalues --    1.18691   1.20224   1.21663   1.22134   1.23582
 Alpha virt. eigenvalues --    1.25472   1.29096   1.30226   1.31670   1.31724
 Alpha virt. eigenvalues --    1.36515   1.37810   1.39596   1.40136   1.41444
 Alpha virt. eigenvalues --    1.44332   1.45442   1.45893   1.48020   1.48785
 Alpha virt. eigenvalues --    1.49132   1.50432   1.51570   1.53025   1.56001
 Alpha virt. eigenvalues --    1.57596   1.59514   1.62508   1.63122   1.63275
 Alpha virt. eigenvalues --    1.65511   1.65868   1.67038   1.68141   1.68450
 Alpha virt. eigenvalues --    1.69461   1.71018   1.72211   1.73204   1.75003
 Alpha virt. eigenvalues --    1.75653   1.76372   1.77669   1.78729   1.79215
 Alpha virt. eigenvalues --    1.79744   1.80570   1.80975   1.81815   1.82567
 Alpha virt. eigenvalues --    1.83852   1.84386   1.85116   1.85900   1.87121
 Alpha virt. eigenvalues --    1.88098   1.89706   1.90953   1.93011   1.94189
 Alpha virt. eigenvalues --    1.95332   1.95874   1.97929   1.98232   1.98832
 Alpha virt. eigenvalues --    1.99474   2.02296   2.03118   2.04312   2.05620
 Alpha virt. eigenvalues --    2.06411   2.07240   2.10422   2.12440   2.13443
 Alpha virt. eigenvalues --    2.14849   2.16281   2.16804   2.23664   2.26023
 Alpha virt. eigenvalues --    2.27912   2.28997   2.31784   2.32932   2.34303
 Alpha virt. eigenvalues --    2.36783   2.38756   2.39412   2.40036   2.41063
 Alpha virt. eigenvalues --    2.42706   2.44894   2.47356   2.48697   2.49729
 Alpha virt. eigenvalues --    2.53706   2.54595   2.54835   2.58113   2.58922
 Alpha virt. eigenvalues --    2.60555   2.63940   2.65282   2.66048   2.67401
 Alpha virt. eigenvalues --    2.70680   2.75208   2.75670   2.77507   2.80723
 Alpha virt. eigenvalues --    2.82460   2.82699   2.83228   2.83349   2.84207
 Alpha virt. eigenvalues --    2.84428   2.85347   2.86571   2.86996   2.88084
 Alpha virt. eigenvalues --    2.88466   2.89615   2.90952   2.93192   2.93548
 Alpha virt. eigenvalues --    2.94605   2.95567   2.96845   2.97843   2.98394
 Alpha virt. eigenvalues --    2.99249   3.02583   3.03444   3.03900   3.06726
 Alpha virt. eigenvalues --    3.08080   3.15659   3.18174   3.19627   3.20434
 Alpha virt. eigenvalues --    3.26175   3.28220   3.29726   3.31229   3.31459
 Alpha virt. eigenvalues --    3.34421   3.35843   3.37389   3.38364   3.41469
 Alpha virt. eigenvalues --    3.41931   3.42954   3.45185   3.48177   3.49839
 Alpha virt. eigenvalues --    3.53773   3.56367   3.59665   3.63593   3.64684
 Alpha virt. eigenvalues --    3.76450   3.94232   4.47172   4.57437   4.62174
 Alpha virt. eigenvalues --    4.64294   4.72438   4.73905   4.74750   4.86528
 Alpha virt. eigenvalues --    4.91285   5.03078   5.44529   5.81788   5.84482
 Alpha virt. eigenvalues --    6.07967  22.21674  22.63382  58.49222  58.49256
 Alpha virt. eigenvalues --   58.50384  58.50653  58.50885  58.55581  58.56045
 Alpha virt. eigenvalues --   58.56360  58.56637  58.56828  95.61744 106.32257
 Alpha virt. eigenvalues --  106.33254 106.39095
  Beta  occ. eigenvalues --  -89.28801 -89.08190 -19.24749 -19.24220 -19.21205
  Beta  occ. eigenvalues --  -14.47328 -10.29734 -10.29700 -10.29186 -10.28780
  Beta  occ. eigenvalues --  -10.26124 -10.24853 -10.23276 -10.22805 -10.22514
  Beta  occ. eigenvalues --  -10.22263  -8.22120  -8.04433  -6.15843  -6.15799
  Beta  occ. eigenvalues --   -6.15684  -5.98273  -5.97897  -5.97174  -1.14721
  Beta  occ. eigenvalues --   -1.10834  -1.04482  -0.92331  -0.85731  -0.83925
  Beta  occ. eigenvalues --   -0.82110  -0.77039  -0.73846  -0.71851  -0.71103
  Beta  occ. eigenvalues --   -0.70134  -0.64418  -0.62327  -0.58590  -0.55915
  Beta  occ. eigenvalues --   -0.53068  -0.51823  -0.51017  -0.50414  -0.48340
  Beta  occ. eigenvalues --   -0.47520  -0.47175  -0.46342  -0.46111  -0.44977
  Beta  occ. eigenvalues --   -0.44259  -0.43798  -0.42503  -0.41647  -0.41192
  Beta  occ. eigenvalues --   -0.40202  -0.40033  -0.38709  -0.37664  -0.36320
  Beta  occ. eigenvalues --   -0.36129  -0.35722  -0.35695  -0.34509  -0.33584
  Beta  occ. eigenvalues --   -0.32692  -0.31771  -0.28235  -0.26718  -0.26004
  Beta virt. eigenvalues --   -0.05452  -0.03851  -0.02412   0.00484   0.01078
  Beta virt. eigenvalues --    0.02655   0.03436   0.03727   0.04628   0.04910
  Beta virt. eigenvalues --    0.05020   0.05471   0.05844   0.06187   0.06314
  Beta virt. eigenvalues --    0.06918   0.07863   0.08297   0.08448   0.09066
  Beta virt. eigenvalues --    0.09361   0.09529   0.09705   0.10409   0.10807
  Beta virt. eigenvalues --    0.11036   0.11437   0.11919   0.12792   0.13107
  Beta virt. eigenvalues --    0.13754   0.14091   0.14447   0.14793   0.15071
  Beta virt. eigenvalues --    0.15890   0.16070   0.16703   0.16987   0.17210
  Beta virt. eigenvalues --    0.17888   0.18424   0.18817   0.19379   0.19608
  Beta virt. eigenvalues --    0.19778   0.20218   0.21001   0.21358   0.22142
  Beta virt. eigenvalues --    0.22709   0.23247   0.23312   0.24125   0.24964
  Beta virt. eigenvalues --    0.25583   0.26235   0.26416   0.26856   0.27232
  Beta virt. eigenvalues --    0.27773   0.28078   0.28533   0.29135   0.29376
  Beta virt. eigenvalues --    0.30177   0.30583   0.30989   0.31603   0.31856
  Beta virt. eigenvalues --    0.32092   0.32531   0.33048   0.33591   0.34632
  Beta virt. eigenvalues --    0.35098   0.35783   0.36845   0.37802   0.38233
  Beta virt. eigenvalues --    0.40492   0.41806   0.41990   0.42646   0.43552
  Beta virt. eigenvalues --    0.44373   0.46172   0.47224   0.47606   0.48148
  Beta virt. eigenvalues --    0.50322   0.50840   0.51019   0.51919   0.52030
  Beta virt. eigenvalues --    0.52923   0.53789   0.54146   0.54769   0.55530
  Beta virt. eigenvalues --    0.56238   0.57210   0.58208   0.58390   0.59952
  Beta virt. eigenvalues --    0.60663   0.61097   0.61939   0.62713   0.63322
  Beta virt. eigenvalues --    0.63912   0.64289   0.64934   0.65503   0.66082
  Beta virt. eigenvalues --    0.66738   0.67844   0.68436   0.68858   0.70312
  Beta virt. eigenvalues --    0.71293   0.72148   0.72955   0.73222   0.74045
  Beta virt. eigenvalues --    0.74451   0.74795   0.76006   0.76515   0.77287
  Beta virt. eigenvalues --    0.78567   0.79121   0.79952   0.80915   0.82070
  Beta virt. eigenvalues --    0.82250   0.82673   0.83286   0.83877   0.84942
  Beta virt. eigenvalues --    0.85737   0.86136   0.87185   0.87975   0.88441
  Beta virt. eigenvalues --    0.88730   0.89251   0.89892   0.90535   0.91048
  Beta virt. eigenvalues --    0.91255   0.91727   0.93113   0.94393   0.94922
  Beta virt. eigenvalues --    0.95502   0.96547   0.97530   0.98032   0.99361
  Beta virt. eigenvalues --    0.99677   0.99907   1.02115   1.02289   1.03585
  Beta virt. eigenvalues --    1.04618   1.04810   1.07787   1.08656   1.09329
  Beta virt. eigenvalues --    1.12338   1.12654   1.14667   1.15062   1.15969
  Beta virt. eigenvalues --    1.17010   1.19003   1.20575   1.22134   1.23257
  Beta virt. eigenvalues --    1.23876   1.25934   1.29577   1.30798   1.31813
  Beta virt. eigenvalues --    1.32393   1.36890   1.38138   1.39655   1.40215
  Beta virt. eigenvalues --    1.41507   1.44366   1.45637   1.46152   1.48198
  Beta virt. eigenvalues --    1.48903   1.49225   1.50486   1.51673   1.53056
  Beta virt. eigenvalues --    1.56180   1.57682   1.59627   1.62540   1.63143
  Beta virt. eigenvalues --    1.63300   1.65850   1.66064   1.67621   1.68317
  Beta virt. eigenvalues --    1.68466   1.69736   1.71079   1.72258   1.73323
  Beta virt. eigenvalues --    1.75090   1.75718   1.76498   1.77704   1.78785
  Beta virt. eigenvalues --    1.79260   1.79821   1.80655   1.81019   1.81878
  Beta virt. eigenvalues --    1.82715   1.83990   1.84459   1.85211   1.86051
  Beta virt. eigenvalues --    1.87259   1.88208   1.89816   1.91193   1.93165
  Beta virt. eigenvalues --    1.94294   1.95343   1.95899   1.98133   1.98401
  Beta virt. eigenvalues --    1.99102   1.99738   2.02607   2.03410   2.04505
  Beta virt. eigenvalues --    2.05980   2.06851   2.07662   2.10775   2.12866
  Beta virt. eigenvalues --    2.13580   2.15155   2.16327   2.17210   2.24488
  Beta virt. eigenvalues --    2.26076   2.28041   2.30148   2.31919   2.33036
  Beta virt. eigenvalues --    2.34429   2.36874   2.38761   2.39415   2.40218
  Beta virt. eigenvalues --    2.41382   2.42968   2.44999   2.47525   2.49211
  Beta virt. eigenvalues --    2.49888   2.53908   2.54917   2.55827   2.58636
  Beta virt. eigenvalues --    2.59029   2.60614   2.64032   2.65388   2.66119
  Beta virt. eigenvalues --    2.68227   2.70846   2.75346   2.76062   2.77709
  Beta virt. eigenvalues --    2.80947   2.82474   2.82729   2.83264   2.84215
  Beta virt. eigenvalues --    2.84347   2.85399   2.85930   2.86971   2.87313
  Beta virt. eigenvalues --    2.88300   2.89690   2.89792   2.91217   2.93241
  Beta virt. eigenvalues --    2.94651   2.95414   2.95855   2.96966   2.98078
  Beta virt. eigenvalues --    2.98450   2.99687   3.02788   3.03940   3.04368
  Beta virt. eigenvalues --    3.06822   3.08193   3.16039   3.19142   3.19836
  Beta virt. eigenvalues --    3.23808   3.26178   3.28222   3.30219   3.31273
  Beta virt. eigenvalues --    3.31539   3.34474   3.35853   3.37433   3.38381
  Beta virt. eigenvalues --    3.41570   3.42048   3.43008   3.45226   3.48299
  Beta virt. eigenvalues --    3.49957   3.53947   3.56404   3.59708   3.63702
  Beta virt. eigenvalues --    3.64702   3.76469   3.95937   4.47244   4.57498
  Beta virt. eigenvalues --    4.62175   4.64414   4.72513   4.74007   4.74856
  Beta virt. eigenvalues --    4.86655   4.91325   5.03082   5.46410   5.81797
  Beta virt. eigenvalues --    5.84482   6.10478  22.21675  22.63382  58.49221
  Beta virt. eigenvalues --   58.49255  58.50365  58.50617  58.50832  58.55627
  Beta virt. eigenvalues --   58.56092  58.56402  58.56679  58.56830  95.62671
  Beta virt. eigenvalues --  106.32258 106.33255 106.40237
          Condensed to atoms (all electrons):
               1          2          3          4          5          6
     1  O    8.666622  -0.013855  -0.086040  -0.001610   0.036813  -0.003842
     2  N   -0.013855   7.343878   0.090714  -0.065277  -0.020756   0.015876
     3  C   -0.086040   0.090714   5.432769   0.244457  -0.096893   0.018178
     4  C   -0.001610  -0.065277   0.244457   5.179594   0.606384  -0.034715
     5  C    0.036813  -0.020756  -0.096893   0.606384   5.387807   0.193987
     6  C   -0.003842   0.015876   0.018178  -0.034715   0.193987   5.228529
     7  S   -0.000760   0.004755   0.000358  -0.002415  -0.127562   0.259165
     8  C   -0.072073   0.068795  -0.140621  -0.052567   0.219195  -0.074415
     9  C   -0.016547  -0.089834   0.006641  -0.003286  -0.063240   0.008314
    10  C   -0.005869  -0.084538   0.017604  -0.009554  -0.080942   0.005531
    11  C   -0.001900  -0.102810   0.313025  -0.052511  -0.011446  -0.002291
    12  C   -0.008248  -0.092276   0.312455  -0.074167   0.000146  -0.001712
    13  H   -0.000753   0.004644  -0.036255   0.406229  -0.050293  -0.001498
    14  H    0.000032  -0.001441   0.002416   0.022374  -0.081363   0.420110
    15  H    0.000144  -0.003585  -0.000041   0.005682  -0.063658   0.407710
    16  H   -0.001595   0.013914  -0.004458   0.004384   0.003076  -0.000892
    17  H   -0.000425   0.006933  -0.000342   0.000987  -0.006919   0.002171
    18  H    0.007487  -0.025414   0.001842  -0.000868   0.008250  -0.000955
    19  H    0.008026  -0.024415  -0.001387  -0.001323   0.018386  -0.001305
    20  H   -0.000673   0.004608  -0.000776   0.001486  -0.002514   0.001867
    21  H   -0.000095   0.006481   0.002043   0.000276  -0.005297   0.003939
    22  H    0.000043   0.004348  -0.053081  -0.007091   0.008291  -0.000693
    23  H   -0.000879   0.007108  -0.046732   0.000956   0.001751  -0.000048
    24  H    0.007374  -0.023896  -0.034003   0.015648  -0.002671   0.000068
    25  H    0.007509  -0.030707  -0.025059   0.015170  -0.001162   0.000016
    26  H   -0.000227   0.009402  -0.047607  -0.002893   0.000073  -0.000029
    27  H   -0.000589   0.010745  -0.061539  -0.003332   0.005226  -0.000502
    28  S   -0.000239   0.000423  -0.001415  -0.031380  -0.004021  -0.004535
    29  O    0.000310   0.002992  -0.002268   0.031792   0.008473   0.004686
    30  O    0.000174  -0.001965  -0.004670   0.024872   0.016019  -0.024505
    31  C    0.000014  -0.000030  -0.000584   0.003465   0.003784  -0.000339
    32  H   -0.000000  -0.000005   0.000031  -0.000146  -0.000378   0.000140
    33  H   -0.000000   0.000003   0.000021   0.000014   0.000042   0.000204
    34  H   -0.000000   0.000001  -0.000026  -0.000536   0.000171  -0.000422
               7          8          9         10         11         12
     1  O   -0.000760  -0.072073  -0.016547  -0.005869  -0.001900  -0.008248
     2  N    0.004755   0.068795  -0.089834  -0.084538  -0.102810  -0.092276
     3  C    0.000358  -0.140621   0.006641   0.017604   0.313025   0.312455
     4  C   -0.002415  -0.052567  -0.003286  -0.009554  -0.052511  -0.074167
     5  C   -0.127562   0.219195  -0.063240  -0.080942  -0.011446   0.000146
     6  C    0.259165  -0.074415   0.008314   0.005531  -0.002291  -0.001712
     7  S   15.865371  -0.004142   0.003845  -0.000494  -0.000229   0.000890
     8  C   -0.004142   5.422968   0.321753   0.325563   0.018440   0.017832
     9  C    0.003845   0.321753   5.008230  -0.084668  -0.005426   0.004773
    10  C   -0.000494   0.325563  -0.084668   5.034352   0.004979  -0.005910
    11  C   -0.000229   0.018440  -0.005426   0.004979   5.034332  -0.081140
    12  C    0.000890   0.017832   0.004773  -0.005910  -0.081140   5.019476
    13  H    0.000008   0.012155  -0.000898  -0.001506  -0.000552   0.002643
    14  H   -0.042051   0.002697   0.000050  -0.001856  -0.000124  -0.000034
    15  H   -0.041311   0.007764  -0.000891   0.005735   0.000312  -0.000068
    16  H    0.000969  -0.064343   0.412658   0.009174   0.000177  -0.001522
    17  H    0.001042  -0.034587   0.399967  -0.004064   0.000139  -0.000131
    18  H    0.000003  -0.032458   0.412789  -0.003892  -0.000092   0.000060
    19  H    0.000013  -0.040622  -0.002916   0.415102  -0.000337   0.000122
    20  H   -0.000121  -0.038770  -0.003889   0.401235  -0.000073   0.000159
    21  H   -0.001109  -0.056176   0.008336   0.410076  -0.000841  -0.000102
    22  H    0.000013  -0.001219   0.000065  -0.001019   0.410341   0.008304
    23  H    0.000006  -0.001243   0.000173  -0.000078   0.405518  -0.002910
    24  H   -0.000012   0.000465   0.000007  -0.000320   0.411424  -0.003969
    25  H   -0.000033  -0.001978   0.000221  -0.000063  -0.004431   0.410341
    26  H   -0.000004  -0.000704  -0.000135   0.000158  -0.002157   0.406661
    27  H   -0.000051  -0.000277  -0.001634   0.000100   0.009100   0.413036
    28  S    0.310831   0.001845  -0.003196  -0.000204  -0.000938   0.002024
    29  O   -0.075196  -0.006316  -0.000972   0.000070   0.000317  -0.006012
    30  O   -0.083696  -0.002390   0.000694  -0.000065   0.001154   0.000401
    31  C   -0.052028  -0.000884   0.000179   0.000045   0.000060  -0.000184
    32  H   -0.000589   0.000119  -0.000062  -0.000002  -0.000001  -0.000006
    33  H    0.001483  -0.000037  -0.000002   0.000001  -0.000000  -0.000005
    34  H    0.002673   0.000117   0.000004  -0.000001  -0.000000   0.000008
              13         14         15         16         17         18
     1  O   -0.000753   0.000032   0.000144  -0.001595  -0.000425   0.007487
     2  N    0.004644  -0.001441  -0.003585   0.013914   0.006933  -0.025414
     3  C   -0.036255   0.002416  -0.000041  -0.004458  -0.000342   0.001842
     4  C    0.406229   0.022374   0.005682   0.004384   0.000987  -0.000868
     5  C   -0.050293  -0.081363  -0.063658   0.003076  -0.006919   0.008250
     6  C   -0.001498   0.420110   0.407710  -0.000892   0.002171  -0.000955
     7  S    0.000008  -0.042051  -0.041311   0.000969   0.001042   0.000003
     8  C    0.012155   0.002697   0.007764  -0.064343  -0.034587  -0.032458
     9  C   -0.000898   0.000050  -0.000891   0.412658   0.399967   0.412789
    10  C   -0.001506  -0.001856   0.005735   0.009174  -0.004064  -0.003892
    11  C   -0.000552  -0.000124   0.000312   0.000177   0.000139  -0.000092
    12  C    0.002643  -0.000034  -0.000068  -0.001522  -0.000131   0.000060
    13  H    0.508463   0.002122  -0.000026  -0.000042  -0.000001   0.000004
    14  H    0.002122   0.489247  -0.014210  -0.000034  -0.000017   0.000001
    15  H   -0.000026  -0.014210   0.530592   0.000088  -0.000046   0.000010
    16  H   -0.000042  -0.000034   0.000088   0.537179  -0.019176  -0.015018
    17  H   -0.000001  -0.000017  -0.000046  -0.019176   0.566283  -0.021042
    18  H    0.000004   0.000001   0.000010  -0.015018  -0.021042   0.521608
    19  H    0.000005   0.000003  -0.000033  -0.000007  -0.000252   0.001939
    20  H    0.000002   0.000020  -0.000036   0.000100   0.001234  -0.000160
    21  H   -0.000015  -0.000013  -0.000256  -0.000140   0.000071   0.000030
    22  H    0.000064   0.000004   0.000002  -0.000001   0.000000   0.000000
    23  H    0.000525   0.000001   0.000000  -0.000000  -0.000000   0.000000
    24  H    0.000019   0.000000  -0.000000  -0.000001   0.000000  -0.000002
    25  H   -0.000043  -0.000000   0.000000  -0.000005  -0.000000  -0.000009
    26  H    0.000173  -0.000001   0.000000   0.000008  -0.000000  -0.000000
    27  H   -0.000109  -0.000002   0.000000   0.000313   0.000010  -0.000014
    28  S    0.003543  -0.014365   0.002863  -0.000847  -0.000991   0.000383
    29  O   -0.000351   0.001047  -0.000796  -0.000043   0.000186  -0.000013
    30  O   -0.001056   0.011553  -0.001255   0.000062   0.000019  -0.000010
    31  C   -0.000118   0.000456  -0.000045   0.000032   0.000049  -0.000003
    32  H    0.000000   0.000005  -0.000001  -0.000000  -0.000000   0.000000
    33  H    0.000000  -0.000011   0.000000   0.000000   0.000000  -0.000000
    34  H    0.000001   0.000024  -0.000000   0.000000  -0.000000   0.000000
              19         20         21         22         23         24
     1  O    0.008026  -0.000673  -0.000095   0.000043  -0.000879   0.007374
     2  N   -0.024415   0.004608   0.006481   0.004348   0.007108  -0.023896
     3  C   -0.001387  -0.000776   0.002043  -0.053081  -0.046732  -0.034003
     4  C   -0.001323   0.001486   0.000276  -0.007091   0.000956   0.015648
[...]
     6  C   -0.049083  -0.000213
     7  S   -0.019625   0.000366
     8  C    0.206115  -0.035073
     9  C    0.069330   0.023001
    10  C    0.030041   0.020298
    11  C    0.039454   0.020303
    12  C    0.061953   0.023674
    28  S    0.890320  -0.000081
    29  O   -0.511872  -0.000000
    30  O   -0.568740  -0.000024
    31  C    0.149952  -0.000010
 Electronic spatial extent (au):  <R**2>=           4765.7766
 Charge=              0.0000 electrons
 Dipole moment (field-independent basis, Debye):
    X=              4.1615    Y=              1.8399    Z=             -2.2539  Tot=              5.0778
 Quadrupole moment (field-independent basis, Debye-Ang):
   XX=           -107.1379   YY=           -109.0329   ZZ=           -116.4097
   XY=              5.2819   XZ=              7.1354   YZ=             -0.6326
 Traceless Quadrupole moment (field-independent basis, Debye-Ang):
   XX=              3.7223   YY=              1.8272   ZZ=             -5.5495
   XY=              5.2819   XZ=              7.1354   YZ=             -0.6326
 Octapole moment (field-independent basis, Debye-Ang**2):
  XXX=            184.3580  YYY=             -3.7744  ZZZ=              0.1689  XYY=            -13.8664
  XXY=             -8.5258  XXZ=            -10.0013  XZZ=              0.9080  YZZ=              5.9604
  YYZ=             -2.4583  XYZ=              0.5149
 Hexadecapole moment (field-independent basis, Debye-Ang**3):
 XXXX=          -3937.1536 YYYY=          -1372.1364 ZZZZ=           -688.9850 XXXY=            -21.3287
 XXXZ=            128.0636 YYYX=            -17.0029 YYYZ=              0.9847 ZZZX=            -10.3478
 ZZZY=             -2.5359 XXYY=           -931.5379 XXZZ=           -860.4160 YYZZ=           -351.9291
 XXYZ=             -4.0790 YYXZ=             -4.3033 ZZXY=             14.7081
 N-N= 1.521128035852D+03 E-N=-6.497666560693D+03  KE= 1.459891688241D+03
                          Isotropic Fermi Contact Couplings
        Atom                 a.u.       MegaHertz       Gauss      10(-4) cm-1
     1  O(17)              0.08650     -52.43552     -18.71030     -17.49061
     2  N(14)              0.10834      35.00536      12.49078      11.67653
     3  C(13)             -0.01434     -16.11742      -5.75110      -5.37619
     4  C(13)             -0.00013      -0.14448      -0.05155      -0.04819
     5  C(13)             -0.00029      -0.32319      -0.11532      -0.10780
     6  C(13)             -0.00071      -0.79410      -0.28336      -0.26488
     7  S(33)             -0.00002      -0.00658      -0.00235      -0.00220
     8  C(13)             -0.01458     -16.39073      -5.84862      -5.46736
     9  C(13)              0.01211      13.61955       4.85980       4.54299
    10  C(13)              0.01792      20.14643       7.18875       6.72013
    11  C(13)              0.01764      19.83081       7.07613       6.61485
    12  C(13)              0.01253      14.08065       5.02433       4.69680
    13  H(1)              -0.00030      -1.34662      -0.48051      -0.44918
    14  H(1)               0.00002       0.10121       0.03612       0.03376
    15  H(1)               0.00001       0.03695       0.01319       0.01233
    16  H(1)              -0.00039      -1.76248      -0.62890      -0.58790
    17  H(1)               0.00025       1.11882       0.39922       0.37320
    18  H(1)              -0.00052      -2.33212      -0.83216      -0.77791
    19  H(1)              -0.00049      -2.17093      -0.77464      -0.72414
    20  H(1)               0.00039       1.74236       0.62172       0.58119
    21  H(1)              -0.00033      -1.47067      -0.52477      -0.49056
    22  H(1)              -0.00033      -1.48788      -0.53091      -0.49630
    23  H(1)               0.00036       1.63027       0.58172       0.54380
    24  H(1)              -0.00047      -2.08739      -0.74483      -0.69628
    25  H(1)              -0.00051      -2.27069      -0.81024      -0.75742
    26  H(1)               0.00028       1.27225       0.45397       0.42438
    27  H(1)              -0.00040      -1.79532      -0.64061      -0.59885
    28  S(33)              0.00000       0.00060       0.00021       0.00020
    29  O(17)             -0.00001       0.00372       0.00133       0.00124
    30  O(17)             -0.00003       0.01883       0.00672       0.00628
    31  C(13)             -0.00001      -0.00616      -0.00220      -0.00205
    32  H(1)               0.00000       0.00109       0.00039       0.00036
    33  H(1)               0.00000       0.00010       0.00004       0.00003
    34  H(1)              -0.00000      -0.00058      -0.00021      -0.00019
 --------------------------------------------------------
       Center         ----  Spin Dipole Couplings  ----
                      3XX-RR        3YY-RR        3ZZ-RR
 --------------------------------------------------------
     1   Atom       -0.165988     -0.885901      1.051889
     2   Atom       -0.125071     -0.552821      0.677893
     3   Atom       -0.005456      0.012042     -0.006586
     4   Atom        0.004760     -0.005113      0.000352
     5   Atom        0.008435     -0.007184     -0.001251
     6   Atom        0.002302     -0.001445     -0.000857
     7   Atom        0.002219     -0.001258     -0.000961
     8   Atom        0.003448      0.004970     -0.008418
     9   Atom       -0.010970     -0.000996      0.011966
    10   Atom       -0.010123      0.019834     -0.009710
    11   Atom       -0.001204      0.002626     -0.001422
    12   Atom       -0.016888      0.015427      0.001462
    13   Atom        0.001792     -0.001052     -0.000740
    14   Atom        0.001461     -0.001210     -0.000251
    15   Atom        0.001228     -0.000684     -0.000543
    16   Atom        0.003371     -0.003387      0.000016
    17   Atom        0.000438      0.001912     -0.002350
    18   Atom       -0.002120      0.004424     -0.002304
    19   Atom       -0.004853      0.009697     -0.004844
    20   Atom       -0.001240      0.003886     -0.002646
    21   Atom       -0.005626      0.000544      0.005083
    22   Atom       -0.005810     -0.002142      0.007952
    23   Atom       -0.002717      0.003615     -0.000898
    24   Atom       -0.001776      0.003870     -0.002094
    25   Atom       -0.004907      0.010029     -0.005123
    26   Atom       -0.002839      0.005384     -0.002545
    27   Atom       -0.000439      0.001850     -0.001411
    28   Atom        0.001421     -0.000724     -0.000697
    29   Atom        0.001466     -0.000687     -0.000778
    30   Atom        0.001034     -0.000589     -0.000446
    31   Atom        0.000662     -0.000329     -0.000333
    32   Atom        0.000620     -0.000311     -0.000309
    33   Atom        0.000519     -0.000249     -0.000270
    34   Atom        0.000552     -0.000285     -0.000266
 --------------------------------------------------------
                        XY            XZ            YZ
 --------------------------------------------------------
     1   Atom       -0.315471      1.382367     -0.496265
     2   Atom       -0.183342      0.786647     -0.296727
     3   Atom       -0.008781     -0.001072      0.006615
     4   Atom       -0.006280     -0.007336      0.003006
     5   Atom        0.002651     -0.007538     -0.001262
     6   Atom        0.000998     -0.001800     -0.000410
     7   Atom        0.000868      0.000476      0.000169
     8   Atom        0.012895     -0.000823     -0.002582
     9   Atom        0.010145      0.007653      0.021410
    10   Atom       -0.010639      0.004001     -0.017596
    11   Atom        0.015123      0.013837      0.018685
    12   Atom       -0.003484     -0.001449     -0.022934
    13   Atom       -0.002816     -0.002837      0.001640
    14   Atom        0.000294     -0.001635     -0.000190
    15   Atom        0.001543     -0.001640     -0.000912
    16   Atom        0.003575      0.007040      0.002028
    17   Atom        0.005269      0.000573      0.001155
    18   Atom        0.006006      0.002205      0.007957
    19   Atom       -0.001683     -0.001137     -0.005180
    20   Atom        0.003301     -0.001016     -0.003072
    21   Atom        0.001146      0.000137     -0.007474
    22   Atom        0.000509      0.002725      0.005403
    23   Atom       -0.000990     -0.000132      0.004618
    24   Atom        0.005474      0.001950      0.006944
    25   Atom       -0.001459     -0.001341     -0.005295
    26   Atom       -0.003432     -0.000673      0.000328
    27   Atom       -0.005881      0.004780     -0.004375
    28   Atom       -0.000213     -0.000167      0.000026
    29   Atom       -0.000556      0.000341     -0.000082
    30   Atom       -0.000409     -0.000558      0.000136
    31   Atom       -0.000043     -0.000045      0.000003
    32   Atom        0.000035      0.000069      0.000003
    33   Atom       -0.000125     -0.000021      0.000003
    34   Atom        0.000020     -0.000131     -0.000002
 --------------------------------------------------------


 ---------------------------------------------------------------------------------
              Anisotropic Spin Dipole Couplings in Principal Axis System
 ---------------------------------------------------------------------------------

       Atom             a.u.   MegaHertz   Gauss  10(-4) cm-1        Axes

              Baa    -1.0683    77.301    27.583    25.785  0.8225 -0.1006 -0.5598
     1 O(17)  Bbb    -1.0022    72.516    25.875    24.189  0.1918  0.9756  0.1066
              Bcc     2.0704  -149.816   -53.458   -49.973  0.5354 -0.1951  0.8217
 
              Baa    -0.6213   -23.961    -8.550    -7.993  0.1805  0.9770  0.1138
     2 N(14)  Bbb    -0.6066   -23.397    -8.348    -7.804  0.8394 -0.0927 -0.5355
              Bcc     1.2279    47.358    16.898    15.797  0.5126 -0.1922  0.8368
 
              Baa    -0.0103    -1.378    -0.492    -0.460  0.6712  0.4408 -0.5960
     3 C(13)  Bbb    -0.0072    -0.965    -0.344    -0.322  0.6502  0.0359  0.7589
              Bcc     0.0175     2.343     0.836     0.782 -0.3559  0.8969  0.2626
 
              Baa    -0.0082    -1.103    -0.394    -0.368  0.4814  0.8700  0.1069
     4 C(13)  Bbb    -0.0046    -0.619    -0.221    -0.207  0.4279 -0.3397  0.8376
              Bcc     0.0128     1.722     0.614     0.574  0.7650 -0.3574 -0.5358
 
              Baa    -0.0076    -1.023    -0.365    -0.341 -0.1602  0.9871  0.0060
     5 C(13)  Bbb    -0.0054    -0.719    -0.256    -0.240  0.4679  0.0706  0.8809
              Bcc     0.0130     1.742     0.621     0.581  0.8691  0.1439 -0.4732
 
              Baa    -0.0017    -0.231    -0.082    -0.077 -0.4152  0.7540 -0.5091
     6 C(13)  Bbb    -0.0016    -0.220    -0.079    -0.073  0.1909  0.6193  0.7616
              Bcc     0.0034     0.451     0.161     0.150  0.8895  0.2190 -0.4010
 
              Baa    -0.0015    -0.060    -0.021    -0.020 -0.2119  0.9693 -0.1248
     7 S(33)  Bbb    -0.0010    -0.042    -0.015    -0.014 -0.1678  0.0897  0.9817
              Bcc     0.0025     0.102     0.037     0.034  0.9628  0.2290  0.1437
 
              Baa    -0.0098    -1.321    -0.471    -0.441 -0.4778  0.5369  0.6953
     8 C(13)  Bbb    -0.0075    -1.008    -0.360    -0.336  0.5564 -0.4275  0.7125
              Bcc     0.0174     2.329     0.831     0.777  0.6798  0.7273 -0.0946
 
              Baa    -0.0193    -2.596    -0.926    -0.866 -0.5599  0.7414 -0.3701
     9 C(13)  Bbb    -0.0120    -1.616    -0.577    -0.539  0.7805  0.3219 -0.5359
              Bcc     0.0314     4.212     1.503     1.405  0.2782  0.5889  0.7588
 
              Baa    -0.0181    -2.423    -0.865    -0.808  0.1662  0.4533  0.8757
    10 C(13)  Bbb    -0.0131    -1.757    -0.627    -0.586  0.9498  0.1649 -0.2657
              Bcc     0.0311     4.180     1.491     1.394 -0.2649  0.8760 -0.4032
 
              Baa    -0.0182    -2.442    -0.871    -0.815 -0.0336 -0.6538  0.7559
    11 C(13)  Bbb    -0.0138    -1.857    -0.663    -0.619  0.8505 -0.4159 -0.3219
              Bcc     0.0320     4.299     1.534     1.434  0.5249  0.6321  0.5701
 
              Baa    -0.0196    -2.625    -0.937    -0.876  0.7793  0.3959  0.4856
    12 C(13)  Bbb    -0.0129    -1.735    -0.619    -0.579 -0.6254  0.4428  0.6425
              Bcc     0.0325     4.360     1.556     1.454 -0.0394  0.8045 -0.5927
 
              Baa    -0.0028    -1.498    -0.534    -0.500  0.6083  0.7588  0.2328
    13 H(1)   Bbb    -0.0025    -1.331    -0.475    -0.444  0.2556 -0.4649  0.8477
              Bcc     0.0053     2.829     1.009     0.944  0.7514 -0.4561 -0.4767
 
              Baa    -0.0013    -0.668    -0.239    -0.223  0.2811  0.7484  0.6008
    14 H(1)   Bbb    -0.0012    -0.657    -0.234    -0.219 -0.4426  0.6565 -0.6107
              Bcc     0.0025     1.325     0.473     0.442  0.8515  0.0943 -0.5158
 
              Baa    -0.0015    -0.823    -0.294    -0.275 -0.5027  0.8637 -0.0369
    15 H(1)   Bbb    -0.0015    -0.811    -0.289    -0.270  0.3827  0.2606  0.8863
              Bcc     0.0031     1.634     0.583     0.545  0.7751  0.4315 -0.4616
 
              Baa    -0.0058    -3.114    -1.111    -1.039  0.6484 -0.4214 -0.6340
    16 H(1)   Bbb    -0.0043    -2.303    -0.822    -0.768  0.0638  0.8600 -0.5063
              Bcc     0.0102     5.417     1.933     1.807  0.7586  0.2878  0.5845
 
              Baa    -0.0042    -2.245    -0.801    -0.749  0.7267 -0.6610  0.1870
    17 H(1)   Bbb    -0.0025    -1.313    -0.468    -0.438 -0.2310  0.0213  0.9727
              Bcc     0.0067     3.558     1.269     1.187  0.6470  0.7501  0.1372
 
              Baa    -0.0081    -4.347    -1.551    -1.450  0.3557 -0.6153  0.7035
    18 H(1)   Bbb    -0.0042    -2.263    -0.808    -0.755  0.8463 -0.1074 -0.5218
              Bcc     0.0124     6.610     2.359     2.205  0.3966  0.7810  0.4825
 
              Baa    -0.0075    -3.999    -1.427    -1.334  0.5288  0.2919  0.7970
    19 H(1)   Bbb    -0.0040    -2.111    -0.753    -0.704  0.8452 -0.0953 -0.5259
              Bcc     0.0115     6.110     2.180     2.038 -0.0775  0.9517 -0.2971
 
              Baa    -0.0039    -2.090    -0.746    -0.697 -0.1954  0.4297  0.8816
    20 H(1)   Bbb    -0.0027    -1.439    -0.513    -0.480  0.8946 -0.2902  0.3397
              Bcc     0.0066     3.529     1.259     1.177  0.4018  0.8551 -0.3277
 
              Baa    -0.0064    -3.402    -1.214    -1.135  0.8083 -0.4887 -0.3284
    21 H(1)   Bbb    -0.0043    -2.278    -0.813    -0.760  0.5878  0.6362  0.4998
              Bcc     0.0106     5.680     2.027     1.894 -0.0353 -0.5970  0.8014
 
              Baa    -0.0064    -3.437    -1.226    -1.146  0.9423  0.2131 -0.2584
    22 H(1)   Bbb    -0.0043    -2.293    -0.818    -0.765 -0.2934  0.8971 -0.3304
              Bcc     0.0107     5.731     2.045     1.911  0.1614  0.3871  0.9078
 
              Baa    -0.0039    -2.098    -0.748    -0.700 -0.3416 -0.5228  0.7811
    23 H(1)   Bbb    -0.0027    -1.417    -0.506    -0.473  0.9348 -0.1028  0.3400
              Bcc     0.0066     3.515     1.254     1.172 -0.0975  0.8463  0.5238
 
              Baa    -0.0072    -3.857    -1.376    -1.286  0.3717 -0.6172  0.6935
    24 H(1)   Bbb    -0.0037    -1.994    -0.712    -0.665  0.8341 -0.1060 -0.5414
              Bcc     0.0110     5.851     2.088     1.952  0.4077  0.7796  0.4754
 
              Baa    -0.0078    -4.172    -1.489    -1.392  0.5141  0.2823  0.8099
    25 H(1)   Bbb    -0.0039    -2.100    -0.749    -0.701  0.8556 -0.1030 -0.5073
              Bcc     0.0118     6.272     2.238     2.092 -0.0598  0.9538 -0.2945
 
              Baa    -0.0042    -2.265    -0.808    -0.756  0.9026  0.3116  0.2970
    26 H(1)   Bbb    -0.0024    -1.288    -0.460    -0.430 -0.2602 -0.1546  0.9531
              Bcc     0.0067     3.553     1.268     1.185 -0.3429  0.9376  0.0585
 
              Baa    -0.0059    -3.167    -1.130    -1.056  0.7819  0.2768 -0.5586
    27 H(1)   Bbb    -0.0043    -2.299    -0.820    -0.767  0.2331  0.7012  0.6738
              Bcc     0.0102     5.466     1.950     1.823 -0.5781  0.6571 -0.4837
 
              Baa    -0.0007    -0.031    -0.011    -0.010  0.0770  0.9684 -0.2373
    28 S(33)  Bbb    -0.0007    -0.029    -0.010    -0.010  0.0989  0.2294  0.9683
              Bcc     0.0015     0.060     0.021     0.020  0.9921 -0.0980 -0.0781
 
              Baa    -0.0008     0.060     0.021     0.020 -0.1714 -0.1072  0.9793
    29 O(17)  Bbb    -0.0008     0.059     0.021     0.020  0.2134  0.9664  0.1432
              Bcc     0.0017    -0.119    -0.043    -0.040  0.9618 -0.2335  0.1428
 
              Baa    -0.0007     0.050     0.018     0.017  0.2145  0.9753 -0.0532
    30 O(17)  Bbb    -0.0006     0.046     0.016     0.015  0.3135 -0.0172  0.9494
              Bcc     0.0013    -0.095    -0.034    -0.032  0.9250 -0.2203 -0.3094
 
              Baa    -0.0003    -0.045    -0.016    -0.015  0.0369 -0.1827  0.9825
    31 C(13)  Bbb    -0.0003    -0.044    -0.016    -0.015  0.0506  0.9822  0.1808
              Bcc     0.0007     0.089     0.032     0.030  0.9980 -0.0431 -0.0455
 
              Baa    -0.0003    -0.168    -0.060    -0.056 -0.0671 -0.1427  0.9875
    32 H(1)   Bbb    -0.0003    -0.167    -0.059    -0.056 -0.0471  0.9891  0.1397
              Bcc     0.0006     0.334     0.119     0.111  0.9966  0.0372  0.0731
 
              Baa    -0.0003    -0.144    -0.051    -0.048  0.0232 -0.0228  0.9995
    33 H(1)   Bbb    -0.0003    -0.144    -0.051    -0.048  0.1573  0.9874  0.0188
              Bcc     0.0005     0.288     0.103     0.096  0.9873 -0.1567 -0.0265
 
              Baa    -0.0003    -0.153    -0.055    -0.051  0.1476 -0.4633  0.8738
    34 H(1)   Bbb    -0.0003    -0.152    -0.054    -0.051  0.0508  0.8859  0.4611
              Bcc     0.0006     0.306     0.109     0.102  0.9877  0.0237 -0.1542
 

 ---------------------------------------------------------------------------------

 No NMR shielding tensors so no spin-rotation constants.
 Leave Link  601 at Mon Jun 17 21:30:43 2019, MaxMem=  8053063680 cpu:               0.0 elap:               0.3
 (Enter /data2/g16/g16/l9999.exe)
 1\1\GINC-CU01\SP\UPBE1PBE\Gen\C10H18N1O3S2(2)\ROOT\17-Jun-2019\0\\#p g
 en 6d pbe1pbe\\start preoptimized\\0,2\O,0,-3.666482,0.166249,1.049201
 \N,0,-2.643431,0.045069,0.311221\C,0,-2.170833,-1.267829,-0.171732\C,0
 ,-0.861083,-0.865292,-0.779939\C,0,-0.595804,0.438974,-0.648188\C,0,0.
 609945,1.120576,-1.194188\S,0,1.947367,1.451161,0.033285\C,0,-1.702106
 ,1.165435,0.090541\C,0,-1.284336,1.74511,1.443811\C,0,-2.384699,2.2392
 54,-0.764114\C,0,-3.151301,-1.828744,-1.20518\C,0,-2.019442,-2.228264,
 1.012431\H,0,-0.205933,-1.579674,-1.272713\H,0,1.066589,0.534449,-1.99
 3342\H,0,0.383548,2.119395,-1.583368\H,0,-0.750315,1.00224,2.041419\H,
 0,-0.633983,2.616265,1.310761\H,0,-2.184128,2.054891,1.983822\H,0,-3.2
 96992,2.574735,-0.257646\H,0,-1.731385,3.10843,-0.900869\H,0,-2.657898
 ,1.844968,-1.747586\H,0,-3.247885,-1.152258,-2.062764\H,0,-2.804784,-2
 .805133,-1.567276\H,0,-4.136869,-1.954348,-0.745738\H,0,-2.988551,-2.3
 39314,1.51017\H,0,-1.683377,-3.210713,0.661768\H,0,-1.290709,-1.85115,
 1.734099\S,0,2.753623,-0.529688,0.105076\O,0,2.326632,-1.20799,1.34792
 4\O,0,2.497839,-1.168262,-1.208759\C,0,4.510088,-0.18408,0.237546\H,0,
 4.669952,0.428218,1.128987\H,0,4.989013,-1.159987,0.348806\H,0,4.83039
 8,0.324114,-0.671195\\Version=AM64L-G16RevB.01\State=2-A\HF=-1467.5483
 956\S2=0.755001\S2-1=0.\S2A=0.750017\RMSD=7.939e-09\Dipole=1.6334654,0
 .7265545,-0.8915624\Quadrupole=2.7767703,1.3747514,-4.1515217,3.934030
 8,5.2848225,-0.4740585\PG=C01 [X(C10H18N1O3S2)]\\@


 IBM COMPATIBILITY IS LIKE PREGNANCY. YOU ARE OR
 OR YOU ARE NOT. -- ADAM OSBORNE
 Elapsed time:       0 days  0 hours  2 minutes 40.9 seconds.
 File lengths (MBytes):  RWF=    181 Int=      0 D2E=      0 Chk=     15 Scr=      1
 Normal termination of Gaussian 16 at Mon Jun 17 21:30:43 2019.
