 Entering Gaussian System, Link 0=g16
 AtFile(1): /home/malgo/Basis_sets/n07d_pbe0.gbs
            -H 0
             6-31G
             S   1 1.00       0.000000000000
                  0.4000000000D+00  0.10000000D+01
             P   1 1.00       0.000000000000
                  0.7500000000D+00  0.10000000D+01
             ****
             -He 0
             6-31+G**
             ****
             -Li 0
             6-31+G**
             ****
             -Be 0
             6-31+G**
             ****
             -B 0
             6-31G
             S   1 1.00       0.000000000000
                  0.7000000000D+01  0.1000000000D+01
             P   1 1.00       0.000000000000
                  0.3500000000D-01  0.1000000000D+01
             D   1 1.00
                  0.3430000000D+00  0.1000000000D+01
             ****
             -C 0
             6-31G
             S   1 1.00       0.000000000000
                  0.8700000000D+01  0.1000000000D+01
             P   1 1.00       0.000000000000
                  0.5000000000D-01  0.1000000000D+01
             D   1 1.00
                  0.8200000000D+00  0.1000000000D+01
             ****
             -N 0
             6-31G
             S   1 1.00       0.000000000000
                  0.1370000000D+02  0.1000000000D+01
             P   1 1.00       0.000000000000
                  0.5300000000D-01  0.1000000000D+01
             D   1 1.00       0.000000000000
                  0.1015000000D+01  0.1000000000D+01
             ****
             -O 0
             6-31G
             S   1 1.00
                  0.1600000000D+02  0.1000000000D+01
             P   1 1.00       0.000000000000
                  0.6500000000D-01  0.1000000000D+01
             D   1 1.00        0.000000000000
                  0.1190000000D+01  0.1000000000D+01
             D   1 1.00        0.000000000000
                  0.1800000000D+00  0.1000000000D+01
             ****
             -F 0
             6-31G
             S   1 1.00
                  0.1770000000D+02  0.1000000000D+01
             P   1 1.00       0.000000000000
                  0.8300000000D-01  0.1000000000D+01
             D   1 1.00       0.000000000000
                  1.3700000000D+00  0.1000000000D+01
             D   1 1.00       0.000000000000
                  0.2300000000D+00  0.1000000000D+01
             ****
             -Ne 0
             6-31+G**
             ****
             -Na 0
             6-31+G**
             ****
             -Mg 0
             6-31+G**
             ****
             -Al 0
             6-31G
             S   1 1.00      0.000000000000
                  0.3100000000D+01  0.1000000000D+01
             P   1 1.00      0.000000000000
                  0.1500000000D-01  0.1000000000D+01
             D   1 1.00      0.000000000000
                  0.1890000000D+00  0.1000000000D+01
             ****
             -Si 0
             6-31G
             S   1 1.00      0.000000000000
                  0.5000000000D+01  0.1000000000D+01
             P   1 1.00       0.000000000000
                  0.3300000000D-01  0.1000000000D+01
             D   1 1.0        0.000000000000
                  0.2750000000D+00  0.1000000000D+01
             ****
             -P  0
             6-31G
             S   1 1.00       0.000000000000
                  0.6300000000D+01  0.1000000000D+01
             P   1 1.00       0.000000000000
                  0.3500000000D-01  0.1000000000D+01
             D   1 1.00       0.000000000000
                  0.3730000000D+00  0.1000000000D+01
             ****
             -S  0
             6-31G
             S   1  1.00      0.000000000000
                  0.7500000000D+01  0.1000000000D+01
             P   1 1.00       0.000000000000
                  0.4100000000D-01  0.1000000000D+01
             D   1 1.00       0.000000000000
                  0.4790000000D+00  0.1000000000D+01
             ****
            -Cl 0
             6-31G
             S   1 1.00       0.000000000000
                  0.8500000000D+01  0.1000000000D+01
             P   1 1.00       0.000000000000
                  0.4800000000D-01  0.1000000000D+01
             D   1 1.00       0.000000000000
                  0.6000000000D+00  0.1000000000D+01
             D   1 1.00       0.000000000000
                  0.1960000000D+00  0.1000000000D+01
             ****
            -Br 0
             S   3 1.00       0.000000000000
                  0.4721881000D+01  0.1749732514D+00
                  0.2257555000D+01 -0.7074172290D+00
                  0.3896080000D+00  0.1258999543D+01
             S   1 1.00       0.000000000000
                  0.1471340000D+00  0.1000000000D+01
             P   3 1.00       0.000000000000
                  0.1896942000D+01 -0.2464576731D+00
                  0.9108990000D+00  0.3623179892D+00
                  0.3168550000D+00  0.8338469725D+00
             P   1 1.00       0.000000000000
                  0.1095030000D+00  0.1000000000D+01
             P   1 1.00       0.000000000000
                  0.3609700000D-01  0.1000000000D+01
             D   1 1.00
                  0.4750000000D+00  0.1000000000D+01
             D   1 1.00
                  0.1280000000D+00  0.1000000000D+01
             ****
            -I   0
             S   3 1.00       0.000000000000
                  0.2122765000D+01  0.2063429899D+01
                  0.1770481000D+01 -0.2869526473D+01
                  0.3130840000D+00  0.1404747074D+01
             S   1 1.00       0.000000000000
                  0.1320000000D+00  0.1000000000D+01
             P   3 1.00       0.000000000000
                  0.2432887000D+01  0.7732753148D+00
                  0.2137249000D+01 -0.1020833156D+01
                  0.3145460000D+00  0.1095666871D+01
             P   1 1.00       0.000000000000
                  0.1049450000D+00  0.1000000000D+01
             P   1 1.00       0.000000000000
                  0.3264100000D-01  0.1000000000D+01
             D   1 1.00
                  0.300000000          1.00000000
             D   1 1.00
                  0.090000000          1.00000000
             ****
             -Zn 0
             SP   6 1.00       0.000000000000
                  0.6936492000D+02 -0.4440098182D-02 -0.7689261805D-02
                  0.2362082000D+02  0.7505253308D-01 -0.2997981924D-01
                  0.1018471000D+02  0.2533111104D+00  0.7082410821D-01
                  0.4334082000D+01 -0.2881897118D+00  0.4046140897D+00
                  0.1810918000D+01 -0.7267052298D+00  0.4882324876D+00
                  0.7148410000D+00 -0.2133439088D+00  0.1751969956D+00
             SP   3 1.00       0.000000000000
                  0.2823842000D+01  0.4898545031D-01 -0.1586762981D+00
                  0.1039543000D+01  0.2592794075D+00  0.8379326898D-01
                  0.1432640000D+00 -0.1115711463D+01  0.9840546881D+00
             SP   1 1.00       0.000000000000
                  0.4929600000D-01  0.1000000000D+01  0.1000000000D+01
             S    1 1.00       0.000000000000
                  0.1620000000D+00  0.1000000000D+01
             D    3 1.00       0.000000000000
                  0.3370764000D+02  0.9262647815D-01
                  0.9061106000D+01  0.4002979920D+00
                  0.2738383000D+01  0.6896607863D+00
             D    1 1.00
                  0.2440000000D+01  0.1000000000D+01
             D    1 1.00       0.000000000000
                  0.7302940000D+00  0.1000000000D+01
             D    1 1.00       0.000000000000
                  0.1620000000D+00  0.1000000000D+01
            ****
 Initial command:
 /data2/g16/g16/l1.exe "/tmp/Gau-19993.inp" -scrdir="/tmp/"
 Entering Link 1 = /data2/g16/g16/l1.exe PID=     19994.
  
 Copyright (c) 1988-2017, Gaussian, Inc.  All Rights Reserved.
  
 This is part of the Gaussian(R) 16 program.  It is based on
 the Gaussian(R) 09 system (copyright 2009, Gaussian, Inc.),
 the Gaussian(R) 03 system (copyright 2003, Gaussian, Inc.),
 the Gaussian(R) 98 system (copyright 1998, Gaussian, Inc.),
 the Gaussian(R) 94 system (copyright 1995, Gaussian, Inc.),
 the Gaussian 92(TM) system (copyright 1992, Gaussian, Inc.),
 the Gaussian 90(TM) system (copyright 1990, Gaussian, Inc.),
 the Gaussian 88(TM) system (copyright 1988, Gaussian, Inc.),
 the Gaussian 86(TM) system (copyright 1986, Carnegie Mellon
 University), and the Gaussian 82(TM) system (copyright 1983,
 Carnegie Mellon University). Gaussian is a federally registered
 trademark of Gaussian, Inc.
  
 This software contains proprietary and confidential information,
 including trade secrets, belonging to Gaussian, Inc.
  
 This software is provided under written license and may be
 used, copied, transmitted, or stored only in accord with that
 written license.
  
 The following legend is applicable only to US Government
 contracts under FAR:
  
                    RESTRICTED RIGHTS LEGEND
  
 Use, reproduction and disclosure by the US Government is
 subject to restrictions as set forth in subparagraphs (a)
 and (c) of the Commercial Computer Software - Restricted
 Rights clause in FAR 52.227-19.
  
 Gaussian, Inc.
 340 Quinnipiac St., Bldg. 40, Wallingford CT 06492
  
  
 ---------------------------------------------------------------
 Warning -- This program may not be used in any manner that
 competes with the business of Gaussian, Inc. or will provide
 assistance to any competitor of Gaussian, Inc.  The licensee
 of this program is prohibited from giving any competitor of
 Gaussian, Inc. access to this program.  By using this program,
 the user acknowledges that Gaussian, Inc. is engaged in the
 business of creating and licensing software in the field of
 computational chemistry and represents and warrants to the
 licensee that it is not a competitor of Gaussian, Inc. and that
 it will not use this program in any manner prohibited above.
 ---------------------------------------------------------------
  

 Cite this work as:
 Gaussian 16, Revision B.01,
 M. J. Frisch, G. W. Trucks, H. B. Schlegel, G. E. Scuseria, 
 M. A. Robb, J. R. Cheeseman, G. Scalmani, V. Barone, 
 G. A. Petersson, H. Nakatsuji, X. Li, M. Caricato, A. V. Marenich, 
 J. Bloino, B. G. Janesko, R. Gomperts, B. Mennucci, H. P. Hratchian, 
 J. V. Ortiz, A. F. Izmaylov, J. L. Sonnenberg, D. Williams-Young, 
 F. Ding, F. Lipparini, F. Egidi, J. Goings, B. Peng, A. Petrone, 
 T. Henderson, D. Ranasinghe, V. G. Zakrzewski, J. Gao, N. Rega, 
 G. Zheng, W. Liang, M. Hada, M. Ehara, K. Toyota, R. Fukuda, 
 J. Hasegawa, M. Ishida, T. Nakajima, Y. Honda, O. Kitao, H. Nakai, 
 T. Vreven, K. Throssell, J. A. Montgomery, Jr., J. E. Peralta, 
 F. Ogliaro, M. J. Bearpark, J. J. Heyd, E. N. Brothers, K. N. Kudin, 
 V. N. Staroverov, T. A. Keith, R. Kobayashi, J. Normand, 
 K. Raghavachari, A. P. Rendell, J. C. Burant, S. S. Iyengar, 
 J. Tomasi, M. Cossi, J. M. Millam, M. Klene, C. Adamo, R. Cammi, 
 J. W. Ochterski, R. L. Martin, K. Morokuma, O. Farkas, 
 J. B. Foresman, and D. J. Fox, Gaussian, Inc., Wallingford CT, 2016.
 
 ******************************************
 Gaussian 16:  AM64L-G16RevB.01 20-Dec-2017
                17-Jun-2019 
 ******************************************
 %chk=MTN_PBE0_-0.21.chk
 %mem=60GB
 %nprocshared=12
 Will use up to   12 processors via shared memory.
 -----------------
 #p gen 6d pbe1pbe
 -----------------
 1/38=1,172=1/1;
 2/12=2,17=6,18=5,40=1/2;
 3/5=7,8=2,11=2,25=1,30=1,74=-13/1,2,3;
 4//1;
 5/5=2,38=5/2;
 6/7=2,8=2,9=2,10=2,28=1/1;
 99/5=1,9=1/99;
 Leave Link    1 at Mon Jun 17 21:19:54 2019, MaxMem=  8053063680 cpu:               0.0 elap:               0.1
 (Enter /data2/g16/g16/l101.exe)
 ------------------
 start preoptimized
 ------------------
 Symbolic Z-matrix:
 Charge =  0 Multiplicity = 2
 O                    -3.75388   0.20305   0.8882 
 N                    -2.61123   0.03587   0.37562 
 C                    -2.16163  -1.26783  -0.15793 
 C                    -0.87948  -0.85149  -0.81674 
 C                    -0.605     0.44817  -0.65739 
 C                     0.60535   1.12518  -1.19879 
 S                     1.94277   1.44196   0.03329 
 C                    -1.69291   1.16543   0.11354 
 C                    -1.23834   1.76351   1.44841 
 C                    -2.4215    2.22085  -0.72271 
 C                    -3.2065   -1.81034  -1.13618 
 C                    -1.92744  -2.25586   0.98943 
 H                    -0.23813  -1.56127  -1.33251 
 H                     1.06199   0.53905  -2.00254 
 H                     0.38815   2.1286   -1.58337 
 H                    -0.67212   1.03444   2.03682 
 H                    -0.60638   2.64387   1.29236 
 H                    -2.12433   2.06869   2.01602 
 H                    -3.31539   2.54714  -0.18405 
 H                    -1.78199   3.09463  -0.89167 
 H                    -2.7269    1.81277  -1.69239 
 H                    -3.35829  -1.12006  -1.97076 
 H                    -2.88758  -2.77753  -1.53508 
 H                    -4.15987  -1.94055  -0.61234 
 H                    -2.85975  -2.39911   1.54697 
 H                    -1.60058  -3.22451   0.59737 
 H                    -1.15731  -1.88335   1.6743 
 S                     2.75822  -0.53429   0.10968 
 O                     2.33583  -1.21259   1.35252 
 O                     2.50704  -1.18206  -1.20416 
 C                     4.51009  -0.17028   0.24675 
 H                     4.66075   0.44662   1.13359 
 H                     4.99821  -1.14159   0.36261 
 H                     4.8304    0.33331  -0.6666 
 
 ITRead=  0  0  0  0  0  0  0  0  0  0  0  0  0  0  0  0  0  0  0  0
 ITRead=  0  0  0  0  0  0  0  0  0  0  0  0  0  0
 MicOpt= -1 -1 -1 -1 -1 -1 -1 -1 -1 -1 -1 -1 -1 -1 -1 -1 -1 -1 -1 -1
 MicOpt= -1 -1 -1 -1 -1 -1 -1 -1 -1 -1 -1 -1 -1 -1
 NAtoms=     34 NQM=       34 NQMF=       0 NMMI=      0 NMMIF=      0
                NMic=       0 NMicF=      0.
                    Isotopes and Nuclear Properties:
 (Nuclear quadrupole moments (NQMom) in fm**2, nuclear magnetic moments (NMagM)
  in nuclear magnetons)

  Atom         1           2           3           4           5           6           7           8           9          10
 IAtWgt=          16          14          12          12          12          12          32          12          12          12
 AtmWgt=  15.9949146  14.0030740  12.0000000  12.0000000  12.0000000  12.0000000  31.9720718  12.0000000  12.0000000  12.0000000
 NucSpn=           0           2           0           0           0           0           0           0           0           0
 AtZEff=   0.0000000   0.0000000   0.0000000   0.0000000   0.0000000   0.0000000   0.0000000   0.0000000   0.0000000   0.0000000
 NQMom=    0.0000000   2.0440000   0.0000000   0.0000000   0.0000000   0.0000000   0.0000000   0.0000000   0.0000000   0.0000000
 NMagM=    0.0000000   0.4037610   0.0000000   0.0000000   0.0000000   0.0000000   0.0000000   0.0000000   0.0000000   0.0000000
 AtZNuc=   8.0000000   7.0000000   6.0000000   6.0000000   6.0000000   6.0000000  16.0000000   6.0000000   6.0000000   6.0000000

  Atom        11          12          13          14          15          16          17          18          19          20
 IAtWgt=          12          12           1           1           1           1           1           1           1           1
 AtmWgt=  12.0000000  12.0000000   1.0078250   1.0078250   1.0078250   1.0078250   1.0078250   1.0078250   1.0078250   1.0078250
 NucSpn=           0           0           1           1           1           1           1           1           1           1
 AtZEff=   0.0000000   0.0000000   0.0000000   0.0000000   0.0000000   0.0000000   0.0000000   0.0000000   0.0000000   0.0000000
 NQMom=    0.0000000   0.0000000   0.0000000   0.0000000   0.0000000   0.0000000   0.0000000   0.0000000   0.0000000   0.0000000
 NMagM=    0.0000000   0.0000000   2.7928460   2.7928460   2.7928460   2.7928460   2.7928460   2.7928460   2.7928460   2.7928460
 AtZNuc=   6.0000000   6.0000000   1.0000000   1.0000000   1.0000000   1.0000000   1.0000000   1.0000000   1.0000000   1.0000000

  Atom        21          22          23          24          25          26          27          28          29          30
 IAtWgt=           1           1           1           1           1           1           1          32          16          16
 AtmWgt=   1.0078250   1.0078250   1.0078250   1.0078250   1.0078250   1.0078250   1.0078250  31.9720718  15.9949146  15.9949146
 NucSpn=           1           1           1           1           1           1           1           0           0           0
 AtZEff=   0.0000000   0.0000000   0.0000000   0.0000000   0.0000000   0.0000000   0.0000000   0.0000000   0.0000000   0.0000000
 NQMom=    0.0000000   0.0000000   0.0000000   0.0000000   0.0000000   0.0000000   0.0000000   0.0000000   0.0000000   0.0000000
 NMagM=    2.7928460   2.7928460   2.7928460   2.7928460   2.7928460   2.7928460   2.7928460   0.0000000   0.0000000   0.0000000
 AtZNuc=   1.0000000   1.0000000   1.0000000   1.0000000   1.0000000   1.0000000   1.0000000  16.0000000   8.0000000   8.0000000

  Atom        31          32          33          34
 IAtWgt=          12           1           1           1
 AtmWgt=  12.0000000   1.0078250   1.0078250   1.0078250
 NucSpn=           0           1           1           1
 AtZEff=   0.0000000   0.0000000   0.0000000   0.0000000
 NQMom=    0.0000000   0.0000000   0.0000000   0.0000000
 NMagM=    0.0000000   2.7928460   2.7928460   2.7928460
 AtZNuc=   6.0000000   1.0000000   1.0000000   1.0000000
 Leave Link  101 at Mon Jun 17 21:19:55 2019, MaxMem=  8053063680 cpu:               0.0 elap:               0.2
 (Enter /data2/g16/g16/l202.exe)
                          Input orientation:                          
 ---------------------------------------------------------------------
 Center     Atomic      Atomic             Coordinates (Angstroms)
 Number     Number       Type             X           Y           Z
 ---------------------------------------------------------------------
      1          8           0       -3.753882    0.203049    0.888201
      2          7           0       -2.611231    0.035869    0.375621
      3          6           0       -2.161633   -1.267829   -0.157932
      4          6           0       -0.879483   -0.851492   -0.816739
      5          6           0       -0.605004    0.448174   -0.657388
      6          6           0        0.605345    1.125176   -1.198788
      7         16           0        1.942767    1.441961    0.033285
      8          6           0       -1.692906    1.165435    0.113541
      9          6           0       -1.238336    1.763510    1.448411
     10          6           0       -2.421499    2.220854   -0.722714
     11          6           0       -3.206501   -1.810344   -1.136180
     12          6           0       -1.927442   -2.255864    0.989431
     13          1           0       -0.238133   -1.561274   -1.332513
     14          1           0        1.061989    0.539049   -2.002542
     15          1           0        0.388148    2.128595   -1.583368
     16          1           0       -0.672115    1.034440    2.036819
     17          1           0       -0.606383    2.643865    1.292361
     18          1           0       -2.124328    2.068691    2.016022
     19          1           0       -3.315392    2.547135   -0.184046
     20          1           0       -1.781985    3.094630   -0.891669
     21          1           0       -2.726898    1.812768   -1.692386
     22          1           0       -3.358285   -1.120058   -1.970764
     23          1           0       -2.887584   -2.777533   -1.535076
     24          1           0       -4.159869   -1.940548   -0.612338
     25          1           0       -2.859751   -2.399114    1.546970
     26          1           0       -1.600577   -3.224513    0.597368
     27          1           0       -1.157309   -1.883350    1.674299
     28         16           0        2.758223   -0.534288    0.109676
     29          8           0        2.335832   -1.212590    1.352524
     30          8           0        2.507039   -1.182062   -1.204159
     31          6           0        4.510088   -0.170280    0.246746
     32          1           0        4.660752    0.446618    1.133587
     33          1           0        4.998213   -1.141587    0.362606
     34          1           0        4.830398    0.333314   -0.666595
 ---------------------------------------------------------------------
                    Distance matrix (angstroms):
                    1          2          3          4          5
     1  O    0.000000
     2  N    1.263463   0.000000
     3  C    2.406893   1.478663   0.000000
     4  C    3.504432   2.282122   1.500424   0.000000
     5  C    3.516300   2.293916   2.370067   1.337858   0.000000
     6  C    4.920234   3.743222   3.803422   2.501578   1.488755
     7  S    5.892164   4.778408   4.921953   3.734644   2.820599
     8  C    2.402896   1.479164   2.492825   2.365391   1.514043
     9  C    3.012780   2.453663   3.552722   3.478206   2.562344
    10  C    2.905483   2.452855   3.543645   3.438890   2.538960
    11  C    2.907146   2.459348   1.530699   2.537016   3.478208
    12  C    3.064700   2.469083   1.532155   2.516491   3.431133
    13  H    4.517178   3.331694   2.272796   1.086804   2.151341
    14  H    5.626891   4.404701   4.130270   2.666280   2.143960
    15  H    5.193534   4.148905   4.479838   3.327991   2.160464
    16  H    3.392318   2.741695   3.512270   3.426738   2.758072
    17  H    4.003458   3.414890   4.452359   4.091504   2.936423
    18  H    2.721773   2.657133   3.982441   4.254603   3.475851
    19  H    2.614713   2.667494   3.985698   4.229021   3.460620
    20  H    3.926520   3.413164   4.439994   4.048704   2.905839
    21  H    3.210190   2.728993   3.487714   3.358271   2.726861
    22  H    3.175026   2.720254   2.177194   2.747428   3.429995
    23  H    3.937844   3.412091   2.168579   2.873693   4.047925
    24  H    2.647914   2.698253   2.156846   3.462478   4.283117
    25  H    2.829258   2.713478   2.161912   3.450176   4.248544
    26  H    4.058262   3.420626   2.171146   2.854979   4.006770
    27  H    3.422456   2.735664   2.178211   2.710570   3.343323
    28  S    6.599794   5.406186   4.981433   3.767196   3.586769
    29  O    6.269310   5.194846   4.744652   3.895426   3.930191
    30  O    6.745045   5.493246   4.785232   3.424602   3.555480
    31  C    8.297231   7.125468   6.773495   5.535569   5.231072
    32  H    8.421734   7.322907   7.152083   6.015236   5.561994
    33  H    8.870370   7.700014   7.179853   6.001860   5.913017
    34  H    8.724920   7.520142   7.191029   5.833442   5.436623
                    6          7          8          9         10
     6  C    0.000000
     7  S    1.845821   0.000000
     8  C    2.646845   3.647057   0.000000
     9  C    3.288509   3.496483   1.531733   0.000000
    10  C    3.254065   4.497224   1.531039   2.514522   0.000000
    11  C    4.811587   6.201621   3.564833   4.829722   4.127680
    12  C    4.757599   5.437522   3.539418   4.103766   4.818354
    13  H    2.818927   3.954889   3.412093   4.448385   4.409471
    14  H    1.094573   2.394914   3.529818   4.324335   4.074447
    15  H    1.096324   2.345607   2.852712   3.459830   2.939958
    16  H    3.479840   3.319312   2.181324   1.094702   3.476053
    17  H    3.159197   3.086748   2.180804   1.094870   2.744834
    18  H    4.321613   4.567855   2.149751   1.095582   2.759011
    19  H    4.292301   5.377442   2.151770   2.755566   1.093466
    20  H    3.110051   4.178592   2.177194   2.746527   1.095905
    21  H    3.438061   4.992115   2.179347   3.476039   1.095475
    22  H    4.620323   6.219430   3.513018   4.949738   3.687396
    23  H    5.248312   6.602740   4.437588   5.678229   5.085375
    24  H    5.696477   7.007165   4.032361   5.148018   4.511250
    25  H    5.653910   6.333189   4.015253   4.468349   5.166008
    26  H    5.197313   5.886379   4.417494   5.073053   5.662910
    27  H    4.518053   4.833331   3.466687   3.654747   4.918164
    28  S    3.016750   2.139244   4.764622   4.800476   5.925639
    29  O    3.868970   2.990240   4.839505   4.651993   6.223130
    30  O    2.989953   2.955532   4.988648   5.453472   6.008503
    31  C    4.360595   3.039083   6.346575   6.182873   7.396234
    32  H    4.727234   3.096581   6.475041   6.052484   7.533395
    33  H    5.183961   4.014838   7.082052   6.965135   8.218032
    34  H    4.331437   3.171331   6.622275   6.583938   7.493728
                   11         12         13         14         15
    11  C    0.000000
    12  C    2.520457   0.000000
    13  H    2.985262   2.954259   0.000000
    14  H    4.948761   5.069530   2.559416   0.000000
    15  H    5.351329   5.586120   3.751038   1.776633   0.000000
    16  H    4.958208   3.674094   4.275333   4.423682   3.927733
    17  H    5.700737   5.083730   4.970791   4.250894   3.086165
    18  H    5.114136   4.449093   5.286498   5.351755   4.389958
    19  H    4.461618   5.135392   5.259993   5.147893   3.981141
    20  H    5.113492   5.673401   4.924963   3.981610   2.474095
    21  H    3.696799   4.938121   4.208042   4.009267   3.132913
    22  H    1.093647   3.478523   3.215180   4.721490   4.973890
    23  H    1.093746   2.750845   2.922312   5.178549   5.899394
    24  H    1.095570   2.765650   4.005311   5.945492   6.179424
    25  H    2.768787   1.095705   3.983250   6.050775   6.391245
    26  H    2.753916   1.094913   2.889128   5.292749   6.112806
    27  H    3.478981   1.095863   3.160623   4.930767   5.394120
    28  S    6.225625   5.068851   3.480339   2.913885   3.946467
    29  O    6.104786   4.404062   3.735813   3.993417   4.855559
    30  O    5.748382   5.062560   2.774211   2.384913   3.948917
    31  C    8.009247   6.807572   5.193701   4.177539   5.062068
    32  H    8.493491   7.122394   5.840578   4.774405   5.335357
    33  H    8.367253   7.042671   5.519863   4.890023   5.977759
    34  H    8.331118   7.423925   5.451873   4.003497   4.878226
                   16         17         18         19         20
    16  H    0.000000
    17  H    1.774482   0.000000
    18  H    1.782984   1.777264   0.000000
    19  H    3.769271   3.086724   2.547124   0.000000
    20  H    3.748631   2.520955   3.102324   1.775336   0.000000
    21  H    4.328383   3.754467   3.765751   1.777838   1.782464
    22  H    5.283757   5.691051   5.252165   4.079523   4.627393
    23  H    5.674317   6.526089   6.056298   5.510026   6.009877
    24  H    5.294621   6.105079   5.208234   4.586488   5.575426
    25  H    4.100609   5.529388   4.552158   5.260172   6.106534
    26  H    4.590506   5.992437   5.504989   6.071501   6.494745
    27  H    2.979989   4.576579   4.082956   5.266874   5.635131
    28  S    4.235801   4.777026   5.852261   6.816908   5.897900
    29  O    3.816431   4.851030   5.576743   6.959376   6.367493
    30  O    5.052112   5.528447   6.510493   6.989152   6.064938
    31  C    5.613461   5.932200   7.222105   8.295063   7.179541
    32  H    5.440665   5.709274   7.031865   8.352676   7.254136
    33  H    6.300056   6.826829   7.985628   9.111615   8.092578
    34  H    6.170711   6.223724   7.653508   8.455043   7.169319
                   21         22         23         24         25
    21  H    0.000000
    22  H    3.012908   0.000000
    23  H    4.595806   1.777247   0.000000
    24  H    4.160203   1.777938   1.780646   0.000000
    25  H    5.315170   3.776106   3.105315   2.561874   0.000000
    26  H    5.646749   3.756803   2.530513   3.108365   1.780041
    27  H    5.240178   4.325898   3.754131   3.774566   1.783405
    28  S    6.232387   6.487143   6.293846   7.096398   6.091389
    29  O    6.637432   6.593616   6.170199   6.825301   5.332891
    30  O    6.049915   5.915535   5.635334   6.735964   6.152427
    31  C    7.750270   8.229868   8.043520   8.890446   7.808509
    32  H    8.026821   8.740505   8.631007   9.303234   8.051524
    33  H    8.522238   8.676182   8.274256   9.244421   8.045601
    34  H    7.768768   8.418294   8.366533   9.273526   8.456029
                   26         27         28         29         30
    26  H    0.000000
    27  H    1.776228   0.000000
    28  S    5.145317   4.427121   0.000000
    29  O    4.484798   3.571483   1.477558   0.000000
    30  O    4.928450   4.712194   1.486226   2.562591   0.000000
    31  C    6.840431   6.090312   1.794525   2.652649   2.672271
    32  H    7.277979   6.290545   2.372801   2.864639   3.571573
    33  H    6.923707   6.337287   2.334597   2.841347   2.943185
    34  H    7.457424   6.800443   2.376813   3.562235   2.825480
                   31         32         33         34
    31  C    0.000000
    32  H    1.090757   0.000000
    33  H    1.093219   1.797411   0.000000
    34  H    1.091053   1.811704   1.806308   0.000000
 Stoichiometry    C10H18NO3S2(2)
 Framework group  C1[X(C10H18NO3S2)]
 Deg. of freedom    96
 Full point group                 C1      NOp   1
 Largest Abelian subgroup         C1      NOp   1
 Largest concise Abelian subgroup C1      NOp   1
                         Standard orientation:                         
 ---------------------------------------------------------------------
 Center     Atomic      Atomic             Coordinates (Angstroms)
 Number     Number       Type             X           Y           Z
 ---------------------------------------------------------------------
      1          8           0       -3.752334    0.196368    0.895671
      2          7           0       -2.610462    0.030953    0.380787
      3          6           0       -2.159572   -1.272281   -0.152809
      4          6           0       -0.879597   -0.854024   -0.814622
      5          6           0       -0.607198    0.446261   -0.656759
      6          6           0        0.600741    1.125131   -1.201195
      7         16           0        1.940178    1.445263    0.027820
      8          6           0       -1.694796    1.162039    0.115974
      9          6           0       -1.238513    1.761893    1.449461
     10          6           0       -2.427120    2.215516   -0.719470
     11          6           0       -3.205499   -1.817422   -1.128462
     12          6           0       -1.921114   -2.259075    0.994743
     13          1           0       -0.238022   -1.562975   -1.331260
     14          1           0        1.056770    0.539290   -2.005506
     15          1           0        0.380864    2.127875   -1.586012
     16          1           0       -0.669692    1.034289    2.037175
     17          1           0       -0.608530    2.643311    1.291458
     18          1           0       -2.123866    2.065825    2.018736
     19          1           0       -3.320475    2.540513   -0.179136
     20          1           0       -1.789591    3.090360   -0.890388
     21          1           0       -2.733813    1.806184   -1.688208
     22          1           0       -3.360334   -1.128004   -1.963203
     23          1           0       -2.885630   -2.784296   -1.527359
     24          1           0       -4.157511   -1.949030   -0.602510
     25          1           0       -2.851972   -2.403667    1.554357
     26          1           0       -1.593280   -3.227390    0.602663
     27          1           0       -1.150226   -1.884651    1.677718
     28         16           0        2.759468   -0.529413    0.103859
     29          8           0        2.340972   -1.207628    1.348072
     30          8           0        2.506706   -1.178573   -1.208989
     31          6           0        4.510939   -0.162055    0.236962
     32          1           0        4.662334    0.455743    1.123052
     33          1           0        5.001114   -1.132372    0.352464
     34          1           0        4.828377    0.341493   -0.677406
 ---------------------------------------------------------------------
 Rotational constants (GHZ):           0.7790849           0.2770807           0.2424124
 Leave Link  202 at Mon Jun 17 21:19:55 2019, MaxMem=  8053063680 cpu:               0.0 elap:               0.0
 (Enter /data2/g16/g16/l301.exe)
 General basis read from cards:  (6D, 7F)
 Centers:      13     14     15     16     17     18     19     20     21     22
 Centers:      23     24     25     26     27     32     33     34
 6-31G
 S 1 1.00 0.000000000000
     Exponent=  4.0000000000D-01 Coefficients=  1.0000000000D+00
 P 1 1.00 0.000000000000
     Exponent=  7.5000000000D-01 Coefficients=  1.0000000000D+00
 ****
 Centers:       3      4      5      6      8      9     10     11     12     31
 6-31G
 S 1 1.00 0.000000000000
     Exponent=  8.7000000000D+00 Coefficients=  1.0000000000D+00
 P 1 1.00 0.000000000000
     Exponent=  5.0000000000D-02 Coefficients=  1.0000000000D+00
 D 1 1.00
     Exponent=  8.2000000000D-01 Coefficients=  1.0000000000D+00
 ****
 Centers:       2
 6-31G
 S 1 1.00 0.000000000000
     Exponent=  1.3700000000D+01 Coefficients=  1.0000000000D+00
 P 1 1.00 0.000000000000
     Exponent=  5.3000000000D-02 Coefficients=  1.0000000000D+00
 D 1 1.00 0.000000000000
     Exponent=  1.0150000000D+00 Coefficients=  1.0000000000D+00
 ****
 Centers:       1     29     30
 6-31G
 S 1 1.00
     Exponent=  1.6000000000D+01 Coefficients=  1.0000000000D+00
 P 1 1.00 0.000000000000
     Exponent=  6.5000000000D-02 Coefficients=  1.0000000000D+00
 D 1 1.00 0.000000000000
     Exponent=  1.1900000000D+00 Coefficients=  1.0000000000D+00
 D 1 1.00 0.000000000000
     Exponent=  1.8000000000D-01 Coefficients=  1.0000000000D+00
 ****
 Centers:       7     28
 6-31G
 S 1 1.00 0.000000000000
     Exponent=  7.5000000000D+00 Coefficients=  1.0000000000D+00
 P 1 1.00 0.000000000000
     Exponent=  4.1000000000D-02 Coefficients=  1.0000000000D+00
 D 1 1.00 0.000000000000
     Exponent=  4.7900000000D-01 Coefficients=  1.0000000000D+00
 ****
 Ernie: Thresh=  0.10000D-02 Tol=  0.10000D-05 Strict=F.
 There are   438 symmetry adapted cartesian basis functions of A   symmetry.
 There are   438 symmetry adapted basis functions of A   symmetry.
   438 basis functions,   722 primitive gaussians,   438 cartesian basis functions
    71 alpha electrons       70 beta electrons
       nuclear repulsion energy      1520.8808693048 Hartrees.
 IExCor= 1009 DFT=T Ex+Corr=PBE1PBE ExCW=0 ScaHFX=  0.250000
 ScaDFX=  0.750000  0.750000  1.000000  1.000000 ScalE2=  1.000000  1.000000
 IRadAn=      5 IRanWt=     -1 IRanGd=            0 ICorTp=0 IEmpDi=  4
 NAtoms=   34 NActive=   34 NUniq=   34 SFac= 1.00D+00 NAtFMM=   60 NAOKFM=F Big=F
 Integral buffers will be    131072 words long.
 Raffenetti 2 integral format.
 Two-electron integral symmetry is turned on.
 Leave Link  301 at Mon Jun 17 21:19:55 2019, MaxMem=  8053063680 cpu:               0.0 elap:               0.2
 (Enter /data2/g16/g16/l302.exe)
 NPDir=0 NMtPBC=     1 NCelOv=     1 NCel=       1 NClECP=     1 NCelD=      1
         NCelK=      1 NCelE2=     1 NClLst=     1 CellRange=     0.0.
 One-electron integrals computed using PRISM.
 One-electron integral symmetry used in STVInt
 NBasis=   438 RedAO= T EigKep=  6.47D-05  NBF=   438
 NBsUse=   438 1.00D-06 EigRej= -1.00D+00 NBFU=   438
 Precomputing XC quadrature grid using
 IXCGrd= 4 IRadAn=           5 IRanWt=          -1 IRanGd=           0 AccXCQ= 0.00D+00.
 Generated NRdTot=       0 NPtTot=           0 NUsed=           0 NTot=          32
 NSgBfM=   433   433   433   433   433 MxSgAt=    34 MxSgA2=    34.
 Leave Link  302 at Mon Jun 17 21:19:55 2019, MaxMem=  8053063680 cpu:               0.0 elap:               0.4
 (Enter /data2/g16/g16/l303.exe)
 DipDrv:  MaxL=1.
 Leave Link  303 at Mon Jun 17 21:19:55 2019, MaxMem=  8053063680 cpu:               0.0 elap:               0.1
 (Enter /data2/g16/g16/l401.exe)
 ExpMin= 4.10D-02 ExpMax= 2.19D+04 ExpMxC= 3.30D+03 IAcc=3 IRadAn=         5 AccDes= 0.00D+00
 Harris functional with IExCor= 1009 and IRadAn=       5 diagonalized for initial guess.
 HarFok:  IExCor= 1009 AccDes= 0.00D+00 IRadAn=         5 IDoV= 1 UseB2=F ITyADJ=14
 ICtDFT=  3500011 ScaDFX=  1.000000  1.000000  1.000000  1.000000
 FoFCou: FMM=F IPFlag=           0 FMFlag=      100000 FMFlg1=           0
         NFxFlg=           0 DoJE=T BraDBF=F KetDBF=T FulRan=T
         wScrn=  0.000000 ICntrl=       500 IOpCl=  0 I1Cent=   200000004 NGrid=           0
         NMat0=    1 NMatS0=      1 NMatT0=    0 NMatD0=    1 NMtDS0=    0 NMtDT0=    0
 Petite list used in FoFCou.
 Harris En= -1467.69870039668    
 JPrj=0 DoOrth=F DoCkMO=F.
 Initial guess <Sx>= 0.0000 <Sy>= 0.0000 <Sz>= 0.5000 <S**2>= 0.7500 S= 0.5000
 Leave Link  401 at Mon Jun 17 21:19:57 2019, MaxMem=  8053063680 cpu:               0.0 elap:               1.5
 (Enter /data2/g16/g16/l502.exe)
 Integral symmetry usage will be decided dynamically.
 UHF open shell SCF:
 Using DIIS extrapolation, IDIIS=  1040.
 NGot=  8053063680 LenX=  8052670277 LenY=  8052477992
 Requested convergence on RMS density matrix=1.00D-08 within 128 cycles.
 Requested convergence on MAX density matrix=1.00D-06.
 Requested convergence on             energy=1.00D-06.
 No special actions if energy rises.
 Fock matrices will be formed incrementally for  20 cycles.

 Cycle   1  Pass 1  IDiag  1:
 FoFJK:  IHMeth= 1 ICntrl=       0 DoSepK=F KAlg= 0 I1Cent=           0 FoldK=F
 IRaf= 840000000 NMat=       1 IRICut=       1 DoRegI=T DoRafI=F ISym2E= 0 IDoP0=0 IntGTp=1.
 FoFCou: FMM=F IPFlag=           0 FMFlag=      100000 FMFlg1=           0
         NFxFlg=           0 DoJE=F BraDBF=F KetDBF=F FulRan=T
         wScrn=  0.000000 ICntrl=         0 IOpCl=  1 I1Cent=           0 NGrid=           0
         NMat0=    1 NMatS0=      1 NMatT0=    0 NMatD0=    1 NMtDS0=    0 NMtDT0=    0
 Symmetry not used in FoFCou.
 E= -1466.93555466408    
 DIIS: error= 2.53D-02 at cycle   1 NSaved=   1.
 NSaved= 1 IEnMin= 1 EnMin= -1466.93555466408     IErMin= 1 ErrMin= 2.53D-02
 ErrMax= 2.53D-02  0.00D+00 EMaxC= 1.00D-01 BMatC= 2.97D+00 BMatP= 2.97D+00
 IDIUse=3 WtCom= 7.47D-01 WtEn= 2.53D-01
 Coeff-Com:  0.100D+01
 Coeff-En:   0.100D+01
 Coeff:      0.100D+01
 Gap=     0.223 Goal=   None    Shift=    0.000
 Gap=     0.366 Goal=   None    Shift=    0.000
 GapD=    0.223 DampG=1.000 DampE=0.500 DampFc=0.5000 IDamp=-1.
 Damping current iteration by 5.00D-01
 RMSDP=4.75D-03 MaxDP=4.12D-01              OVMax= 2.95D-01

 Cycle   2  Pass 1  IDiag  1:
 RMSU=  2.37D-03    CP:  9.92D-01
 E= -1467.06176400980     Delta-E=       -0.126209345712 Rises=F Damp=T
 DIIS: error= 1.03D-02 at cycle   2 NSaved=   2.
 NSaved= 2 IEnMin= 2 EnMin= -1467.06176400980     IErMin= 2 ErrMin= 1.03D-02
 ErrMax= 1.03D-02  0.00D+00 EMaxC= 1.00D-01 BMatC= 5.23D-01 BMatP= 2.97D+00
 IDIUse=3 WtCom= 8.97D-01 WtEn= 1.03D-01
 Coeff-Com:  0.227D+00 0.773D+00
 Coeff-En:   0.395D+00 0.605D+00
 Coeff:      0.244D+00 0.756D+00
 Gap=     0.126 Goal=   None    Shift=    0.000
 Gap=     0.185 Goal=   None    Shift=    0.000
 RMSDP=1.68D-03 MaxDP=1.19D-01 DE=-1.26D-01 OVMax= 2.85D-01

 Cycle   3  Pass 1  IDiag  1:
 RMSU=  1.39D-03    CP:  9.82D-01  6.10D-01
 E= -1467.46597353040     Delta-E=       -0.404209520600 Rises=F Damp=F
 DIIS: error= 8.22D-03 at cycle   3 NSaved=   3.
 NSaved= 3 IEnMin= 3 EnMin= -1467.46597353040     IErMin= 3 ErrMin= 8.22D-03
 ErrMax= 8.22D-03  0.00D+00 EMaxC= 1.00D-01 BMatC= 3.57D-01 BMatP= 5.23D-01
 IDIUse=3 WtCom= 9.18D-01 WtEn= 8.22D-02
 Coeff-Com:  0.531D-01 0.446D+00 0.501D+00
 Coeff-En:   0.000D+00 0.000D+00 0.100D+01
 Coeff:      0.488D-01 0.409D+00 0.542D+00
 Gap=     0.144 Goal=   None    Shift=    0.000
 Gap=     0.223 Goal=   None    Shift=    0.000
 RMSDP=9.31D-04 MaxDP=6.41D-02 DE=-4.04D-01 OVMax= 1.08D-01

 Cycle   4  Pass 1  IDiag  1:
 RMSU=  6.20D-04    CP:  9.87D-01  7.33D-01  5.49D-01
 E= -1467.53883280901     Delta-E=       -0.072859278614 Rises=F Damp=F
 DIIS: error= 2.27D-03 at cycle   4 NSaved=   4.
 NSaved= 4 IEnMin= 4 EnMin= -1467.53883280901     IErMin= 4 ErrMin= 2.27D-03
 ErrMax= 2.27D-03  0.00D+00 EMaxC= 1.00D-01 BMatC= 4.20D-02 BMatP= 3.57D-01
 IDIUse=3 WtCom= 9.77D-01 WtEn= 2.27D-02
 Coeff-Com: -0.131D-01 0.693D-01 0.276D+00 0.668D+00
 Coeff-En:   0.000D+00 0.000D+00 0.876D-01 0.912D+00
 Coeff:     -0.128D-01 0.678D-01 0.271D+00 0.674D+00
 Gap=     0.143 Goal=   None    Shift=    0.000
 Gap=     0.202 Goal=   None    Shift=    0.000
 RMSDP=3.09D-04 MaxDP=1.72D-02 DE=-7.29D-02 OVMax= 3.15D-02

 Cycle   5  Pass 1  IDiag  1:
 RMSU=  2.03D-04    CP:  9.86D-01  7.22D-01  6.55D-01  7.12D-01
 E= -1467.54758573709     Delta-E=       -0.008752928080 Rises=F Damp=F
 DIIS: error= 8.87D-04 at cycle   5 NSaved=   5.
 NSaved= 5 IEnMin= 5 EnMin= -1467.54758573709     IErMin= 5 ErrMin= 8.87D-04
 ErrMax= 8.87D-04  0.00D+00 EMaxC= 1.00D-01 BMatC= 3.99D-03 BMatP= 4.20D-02
 IDIUse=3 WtCom= 9.91D-01 WtEn= 8.87D-03
 Coeff-Com: -0.941D-02 0.168D-01 0.125D+00 0.375D+00 0.492D+00
 Coeff-En:   0.000D+00 0.000D+00 0.000D+00 0.000D+00 0.100D+01
 Coeff:     -0.933D-02 0.166D-01 0.124D+00 0.372D+00 0.496D+00
 Gap=     0.144 Goal=   None    Shift=    0.000
 Gap=     0.205 Goal=   None    Shift=    0.000
 RMSDP=1.10D-04 MaxDP=5.36D-03 DE=-8.75D-03 OVMax= 1.25D-02

 Cycle   6  Pass 1  IDiag  1:
 RMSU=  6.99D-05    CP:  9.85D-01  7.24D-01  6.52D-01  7.68D-01  6.26D-01
 E= -1467.54845021374     Delta-E=       -0.000864476649 Rises=F Damp=F
 DIIS: error= 2.47D-04 at cycle   6 NSaved=   6.
 NSaved= 6 IEnMin= 6 EnMin= -1467.54845021374     IErMin= 6 ErrMin= 2.47D-04
 ErrMax= 2.47D-04  0.00D+00 EMaxC= 1.00D-01 BMatC= 4.06D-04 BMatP= 3.99D-03
 IDIUse=3 WtCom= 9.98D-01 WtEn= 2.47D-03
 Coeff-Com: -0.315D-02 0.174D-02 0.349D-01 0.117D+00 0.272D+00 0.577D+00
 Coeff-En:   0.000D+00 0.000D+00 0.000D+00 0.000D+00 0.436D-01 0.956D+00
 Coeff:     -0.314D-02 0.173D-02 0.348D-01 0.117D+00 0.272D+00 0.578D+00
 Gap=     0.146 Goal=   None    Shift=    0.000
 Gap=     0.205 Goal=   None    Shift=    0.000
 RMSDP=3.59D-05 MaxDP=2.47D-03 DE=-8.64D-04 OVMax= 5.18D-03

 Cycle   7  Pass 1  IDiag  1:
 RMSU=  2.54D-05    CP:  9.85D-01  7.21D-01  6.58D-01  7.70D-01  6.70D-01
                    CP:  6.98D-01
 E= -1467.54854411421     Delta-E=       -0.000093900468 Rises=F Damp=F
 DIIS: error= 1.14D-04 at cycle   7 NSaved=   7.
 NSaved= 7 IEnMin= 7 EnMin= -1467.54854411421     IErMin= 7 ErrMin= 1.14D-04
 ErrMax= 1.14D-04  0.00D+00 EMaxC= 1.00D-01 BMatC= 6.62D-05 BMatP= 4.06D-04
 IDIUse=3 WtCom= 9.99D-01 WtEn= 1.14D-03
 Coeff-Com: -0.610D-04-0.237D-02-0.266D-02-0.899D-04 0.595D-01 0.328D+00
 Coeff-Com:  0.617D+00
 Coeff-En:   0.000D+00 0.000D+00 0.000D+00 0.000D+00 0.000D+00 0.697D-01
 Coeff-En:   0.930D+00
 Coeff:     -0.609D-04-0.236D-02-0.266D-02-0.898D-04 0.594D-01 0.328D+00
 Coeff:      0.618D+00
 Gap=     0.146 Goal=   None    Shift=    0.000
 Gap=     0.206 Goal=   None    Shift=    0.000
 RMSDP=1.50D-05 MaxDP=9.68D-04 DE=-9.39D-05 OVMax= 1.17D-03

 Cycle   8  Pass 1  IDiag  1:
 RMSU=  1.04D-05    CP:  9.85D-01  7.22D-01  6.57D-01  7.70D-01  7.03D-01
                    CP:  7.93D-01  7.98D-01
 E= -1467.54856020733     Delta-E=       -0.000016093121 Rises=F Damp=F
 DIIS: error= 3.59D-05 at cycle   8 NSaved=   8.
 NSaved= 8 IEnMin= 8 EnMin= -1467.54856020733     IErMin= 8 ErrMin= 3.59D-05
 ErrMax= 3.59D-05  0.00D+00 EMaxC= 1.00D-01 BMatC= 4.87D-06 BMatP= 6.62D-05
 IDIUse=1 WtCom= 1.00D+00 WtEn= 0.00D+00
 Coeff-Com:  0.442D-03-0.119D-02-0.527D-02-0.146D-01-0.156D-01 0.668D-01
 Coeff-Com:  0.220D+00 0.749D+00
 Coeff:      0.442D-03-0.119D-02-0.527D-02-0.146D-01-0.156D-01 0.668D-01
 Coeff:      0.220D+00 0.749D+00
 Gap=     0.146 Goal=   None    Shift=    0.000
 Gap=     0.205 Goal=   None    Shift=    0.000
 RMSDP=5.07D-06 MaxDP=6.09D-04 DE=-1.61D-05 OVMax= 1.17D-03

 Cycle   9  Pass 1  IDiag  1:
 RMSU=  4.17D-06    CP:  9.85D-01  7.22D-01  6.57D-01  7.72D-01  7.02D-01
                    CP:  8.23D-01  8.40D-01  9.08D-01
 E= -1467.54856164570     Delta-E=       -0.000001438370 Rises=F Damp=F
 DIIS: error= 2.33D-05 at cycle   9 NSaved=   9.
 NSaved= 9 IEnMin= 9 EnMin= -1467.54856164570     IErMin= 9 ErrMin= 2.33D-05
 ErrMax= 2.33D-05  0.00D+00 EMaxC= 1.00D-01 BMatC= 2.93D-06 BMatP= 4.87D-06
 IDIUse=1 WtCom= 1.00D+00 WtEn= 0.00D+00
 Coeff-Com:  0.343D-03-0.385D-03-0.285D-02-0.965D-02-0.253D-01-0.262D-01
 Coeff-Com: -0.625D-02 0.483D+00 0.587D+00
 Coeff:      0.343D-03-0.385D-03-0.285D-02-0.965D-02-0.253D-01-0.262D-01
 Coeff:     -0.625D-02 0.483D+00 0.587D+00
 Gap=     0.146 Goal=   None    Shift=    0.000
 Gap=     0.206 Goal=   None    Shift=    0.000
 RMSDP=3.28D-06 MaxDP=2.40D-04 DE=-1.44D-06 OVMax= 2.62D-04

 Cycle  10  Pass 1  IDiag  1:
 RMSU=  2.27D-06    CP:  9.85D-01  7.22D-01  6.57D-01  7.72D-01  7.07D-01
                    CP:  8.40D-01  8.78D-01  1.05D+00  8.63D-01
 E= -1467.54856230348     Delta-E=       -0.000000657787 Rises=F Damp=F
 DIIS: error= 9.16D-06 at cycle  10 NSaved=  10.
 NSaved=10 IEnMin=10 EnMin= -1467.54856230348     IErMin=10 ErrMin= 9.16D-06
 ErrMax= 9.16D-06  0.00D+00 EMaxC= 1.00D-01 BMatC= 5.43D-07 BMatP= 2.93D-06
 IDIUse=1 WtCom= 1.00D+00 WtEn= 0.00D+00
 Coeff-Com:  0.108D-03 0.731D-04-0.165D-03-0.169D-02-0.119D-01-0.314D-01
 Coeff-Com: -0.691D-01 0.109D+00 0.353D+00 0.653D+00
 Coeff:      0.108D-03 0.731D-04-0.165D-03-0.169D-02-0.119D-01-0.314D-01
 Coeff:     -0.691D-01 0.109D+00 0.353D+00 0.653D+00
 Gap=     0.146 Goal=   None    Shift=    0.000
 Gap=     0.206 Goal=   None    Shift=    0.000
 RMSDP=1.55D-06 MaxDP=1.28D-04 DE=-6.58D-07 OVMax= 2.73D-04

 Cycle  11  Pass 1  IDiag  1:
 RMSU=  9.33D-07    CP:  9.85D-01  7.21D-01  6.57D-01  7.71D-01  7.07D-01
                    CP:  8.46D-01  8.86D-01  1.13D+00  9.90D-01  8.57D-01
 E= -1467.54856245842     Delta-E=       -0.000000154938 Rises=F Damp=F
 DIIS: error= 5.47D-06 at cycle  11 NSaved=  11.
 NSaved=11 IEnMin=11 EnMin= -1467.54856245842     IErMin=11 ErrMin= 5.47D-06
 ErrMax= 5.47D-06  0.00D+00 EMaxC= 1.00D-01 BMatC= 1.04D-07 BMatP= 5.43D-07
 IDIUse=1 WtCom= 1.00D+00 WtEn= 0.00D+00
 Coeff-Com:  0.317D-05 0.806D-04 0.429D-03 0.829D-03-0.217D-02-0.106D-01
 Coeff-Com: -0.365D-01-0.208D-01 0.700D-01 0.358D+00 0.641D+00
 Coeff:      0.317D-05 0.806D-04 0.429D-03 0.829D-03-0.217D-02-0.106D-01
 Coeff:     -0.365D-01-0.208D-01 0.700D-01 0.358D+00 0.641D+00
 Gap=     0.146 Goal=   None    Shift=    0.000
 Gap=     0.206 Goal=   None    Shift=    0.000
 RMSDP=6.14D-07 MaxDP=5.76D-05 DE=-1.55D-07 OVMax= 1.17D-04

 Cycle  12  Pass 1  IDiag  1:
 RMSU=  4.29D-07    CP:  9.85D-01  7.21D-01  6.57D-01  7.72D-01  7.06D-01
                    CP:  8.48D-01  8.83D-01  1.14D+00  1.04D+00  9.75D-01
                    CP:  8.28D-01
 E= -1467.54856248430     Delta-E=       -0.000000025875 Rises=F Damp=F
 DIIS: error= 3.15D-06 at cycle  12 NSaved=  12.
 NSaved=12 IEnMin=12 EnMin= -1467.54856248430     IErMin=12 ErrMin= 3.15D-06
 ErrMax= 3.15D-06  0.00D+00 EMaxC= 1.00D-01 BMatC= 2.60D-08 BMatP= 1.04D-07
 IDIUse=1 WtCom= 1.00D+00 WtEn= 0.00D+00
 Coeff-Com: -0.131D-04 0.279D-04 0.297D-03 0.795D-03 0.584D-03-0.133D-02
 Coeff-Com: -0.122D-01-0.340D-01-0.269D-01 0.108D+00 0.398D+00 0.567D+00
 Coeff:     -0.131D-04 0.279D-04 0.297D-03 0.795D-03 0.584D-03-0.133D-02
 Coeff:     -0.122D-01-0.340D-01-0.269D-01 0.108D+00 0.398D+00 0.567D+00
 Gap=     0.146 Goal=   None    Shift=    0.000
 Gap=     0.206 Goal=   None    Shift=    0.000
 RMSDP=3.20D-07 MaxDP=2.20D-05 DE=-2.59D-08 OVMax= 2.74D-05

 Cycle  13  Pass 1  IDiag  1:
 RMSU=  2.03D-07    CP:  9.85D-01  7.21D-01  6.57D-01  7.71D-01  7.06D-01
                    CP:  8.49D-01  8.84D-01  1.15D+00  1.06D+00  1.04D+00
                    CP:  9.47D-01  8.36D-01
 E= -1467.54856248987     Delta-E=       -0.000000005570 Rises=F Damp=F
 DIIS: error= 1.02D-06 at cycle  13 NSaved=  13.
 NSaved=13 IEnMin=13 EnMin= -1467.54856248987     IErMin=13 ErrMin= 1.02D-06
 ErrMax= 1.02D-06  0.00D+00 EMaxC= 1.00D-01 BMatC= 4.04D-09 BMatP= 2.60D-08
 IDIUse=1 WtCom= 1.00D+00 WtEn= 0.00D+00
 Coeff-Com: -0.455D-05-0.815D-05 0.581D-04 0.208D-03 0.866D-03 0.265D-02
 Coeff-Com:  0.345D-02-0.964D-02-0.340D-01-0.316D-01 0.592D-01 0.313D+00
 Coeff-Com:  0.696D+00
 Coeff:     -0.455D-05-0.815D-05 0.581D-04 0.208D-03 0.866D-03 0.265D-02
 Coeff:      0.345D-02-0.964D-02-0.340D-01-0.316D-01 0.592D-01 0.313D+00
 Coeff:      0.696D+00
 Gap=     0.146 Goal=   None    Shift=    0.000
 Gap=     0.206 Goal=   None    Shift=    0.000
 RMSDP=1.25D-07 MaxDP=1.28D-05 DE=-5.57D-09 OVMax= 2.10D-05

 Cycle  14  Pass 1  IDiag  1:
 RMSU=  1.04D-07    CP:  9.85D-01  7.21D-01  6.57D-01  7.71D-01  7.06D-01
                    CP:  8.49D-01  8.83D-01  1.15D+00  1.07D+00  1.06D+00
                    CP:  9.77D-01  8.58D-01  8.23D-01
 E= -1467.54856249099     Delta-E=       -0.000000001121 Rises=F Damp=F
 DIIS: error= 5.58D-07 at cycle  14 NSaved=  14.
 NSaved=14 IEnMin=14 EnMin= -1467.54856249099     IErMin=14 ErrMin= 5.58D-07
 ErrMax= 5.58D-07  0.00D+00 EMaxC= 1.00D-01 BMatC= 8.61D-10 BMatP= 4.04D-09
 IDIUse=1 WtCom= 1.00D+00 WtEn= 0.00D+00
 Coeff-Com:  0.300D-06-0.113D-04-0.270D-04-0.430D-04 0.331D-03 0.162D-02
 Coeff-Com:  0.397D-02 0.169D-02-0.129D-01-0.385D-01-0.530D-01 0.265D-01
 Coeff-Com:  0.375D+00 0.695D+00
 Coeff:      0.300D-06-0.113D-04-0.270D-04-0.430D-04 0.331D-03 0.162D-02
 Coeff:      0.397D-02 0.169D-02-0.129D-01-0.385D-01-0.530D-01 0.265D-01
 Coeff:      0.375D+00 0.695D+00
 Gap=     0.146 Goal=   None    Shift=    0.000
 Gap=     0.206 Goal=   None    Shift=    0.000
 RMSDP=7.17D-08 MaxDP=4.72D-06 DE=-1.12D-09 OVMax= 5.89D-06

 Cycle  15  Pass 1  IDiag  1:
 RMSU=  3.42D-08    CP:  9.85D-01  7.21D-01  6.57D-01  7.71D-01  7.06D-01
                    CP:  8.49D-01  8.83D-01  1.15D+00  1.07D+00  1.06D+00
                    CP:  9.99D-01  9.47D-01  9.44D-01  8.12D-01
 E= -1467.54856249137     Delta-E=       -0.000000000382 Rises=F Damp=F
 DIIS: error= 1.33D-07 at cycle  15 NSaved=  15.
 NSaved=15 IEnMin=15 EnMin= -1467.54856249137     IErMin=15 ErrMin= 1.33D-07
 ErrMax= 1.33D-07  0.00D+00 EMaxC= 1.00D-01 BMatC= 5.80D-11 BMatP= 8.61D-10
 IDIUse=1 WtCom= 1.00D+00 WtEn= 0.00D+00
 Coeff-Com:  0.775D-06-0.228D-05-0.195D-04-0.482D-04-0.112D-04 0.213D-03
 Coeff-Com:  0.867D-03 0.216D-02 0.303D-03-0.822D-02-0.267D-01-0.401D-01
 Coeff-Com:  0.416D-01 0.223D+00 0.807D+00
 Coeff:      0.775D-06-0.228D-05-0.195D-04-0.482D-04-0.112D-04 0.213D-03
 Coeff:      0.867D-03 0.216D-02 0.303D-03-0.822D-02-0.267D-01-0.401D-01
 Coeff:      0.416D-01 0.223D+00 0.807D+00
 Gap=     0.146 Goal=   None    Shift=    0.000
 Gap=     0.206 Goal=   None    Shift=    0.000
 RMSDP=2.05D-08 MaxDP=1.21D-06 DE=-3.82D-10 OVMax= 2.17D-06

 Cycle  16  Pass 1  IDiag  1:
 RMSU=  1.42D-08    CP:  9.85D-01  7.21D-01  6.57D-01  7.71D-01  7.06D-01
                    CP:  8.49D-01  8.83D-01  1.15D+00  1.07D+00  1.07D+00
                    CP:  1.00D+00  9.49D-01  9.93D-01  8.92D-01  9.40D-01
 E= -1467.54856249147     Delta-E=       -0.000000000099 Rises=F Damp=F
 DIIS: error= 4.80D-08 at cycle  16 NSaved=  16.
 NSaved=16 IEnMin=16 EnMin= -1467.54856249147     IErMin=16 ErrMin= 4.80D-08
 ErrMax= 4.80D-08  0.00D+00 EMaxC= 1.00D-01 BMatC= 1.16D-11 BMatP= 5.80D-11
 IDIUse=1 WtCom= 1.00D+00 WtEn= 0.00D+00
 Coeff-Com:  0.124D-06 0.102D-05-0.369D-05-0.110D-04-0.542D-04-0.155D-03
 Coeff-Com: -0.264D-03 0.602D-03 0.195D-02 0.286D-02-0.255D-02-0.201D-01
 Coeff-Com: -0.374D-01-0.235D-01 0.318D+00 0.761D+00
 Coeff:      0.124D-06 0.102D-05-0.369D-05-0.110D-04-0.542D-04-0.155D-03
 Coeff:     -0.264D-03 0.602D-03 0.195D-02 0.286D-02-0.255D-02-0.201D-01
 Coeff:     -0.374D-01-0.235D-01 0.318D+00 0.761D+00
 Gap=     0.146 Goal=   None    Shift=    0.000
 Gap=     0.206 Goal=   None    Shift=    0.000
 RMSDP=8.81D-09 MaxDP=4.99D-07 DE=-9.87D-11 OVMax= 1.32D-06

 SCF Done:  E(UPBE1PBE) =  -1467.54856249     A.U. after   16 cycles
            NFock= 16  Conv=0.88D-08     -V/T= 2.0052
 <Sx>= 0.0000 <Sy>= 0.0000 <Sz>= 0.5000 <S**2>= 0.7550 S= 0.5025
 <L.S>=  0.00000000000    
 KE= 1.459887700294D+03 PE=-6.497153303732D+03 EE= 2.048836171642D+03
 Annihilation of the first spin contaminant:
 S**2 before annihilation     0.7550,   after     0.7500
 Leave Link  502 at Mon Jun 17 21:22:35 2019, MaxMem=  8053063680 cpu:               0.0 elap:             157.7
 (Enter /data2/g16/g16/l601.exe)
 Copying SCF densities to generalized density rwf, IOpCl= 1 IROHF=0.

 **********************************************************************

            Population analysis using the SCF Density.

 **********************************************************************

 Orbital symmetries:
 Alpha Orbitals:
       Occupied  (A) (A) (A) (A) (A) (A) (A) (A) (A) (A) (A) (A)
                 (A) (A) (A) (A) (A) (A) (A) (A) (A) (A) (A) (A)
                 (A) (A) (A) (A) (A) (A) (A) (A) (A) (A) (A) (A)
                 (A) (A) (A) (A) (A) (A) (A) (A) (A) (A) (A) (A)
                 (A) (A) (A) (A) (A) (A) (A) (A) (A) (A) (A) (A)
                 (A) (A) (A) (A) (A) (A) (A) (A) (A) (A) (A)
       Virtual   (A) (A) (A) (A) (A) (A) (A) (A) (A) (A) (A) (A)
                 (A) (A) (A) (A) (A) (A) (A) (A) (A) (A) (A) (A)
                 (A) (A) (A) (A) (A) (A) (A) (A) (A) (A) (A) (A)
                 (A) (A) (A) (A) (A) (A) (A) (A) (A) (A) (A) (A)
                 (A) (A) (A) (A) (A) (A) (A) (A) (A) (A) (A) (A)
                 (A) (A) (A) (A) (A) (A) (A) (A) (A) (A) (A) (A)
                 (A) (A) (A) (A) (A) (A) (A) (A) (A) (A) (A) (A)
                 (A) (A) (A) (A) (A) (A) (A) (A) (A) (A) (A) (A)
                 (A) (A) (A) (A) (A) (A) (A) (A) (A) (A) (A) (A)
                 (A) (A) (A) (A) (A) (A) (A) (A) (A) (A) (A) (A)
                 (A) (A) (A) (A) (A) (A) (A) (A) (A) (A) (A) (A)
                 (A) (A) (A) (A) (A) (A) (A) (A) (A) (A) (A) (A)
                 (A) (A) (A) (A) (A) (A) (A) (A) (A) (A) (A) (A)
                 (A) (A) (A) (A) (A) (A) (A) (A) (A) (A) (A) (A)
                 (A) (A) (A) (A) (A) (A) (A) (A) (A) (A) (A) (A)
                 (A) (A) (A) (A) (A) (A) (A) (A) (A) (A) (A) (A)
                 (A) (A) (A) (A) (A) (A) (A) (A) (A) (A) (A) (A)
                 (A) (A) (A) (A) (A) (A) (A) (A) (A) (A) (A) (A)
                 (A) (A) (A) (A) (A) (A) (A) (A) (A) (A) (A) (A)
                 (A) (A) (A) (A) (A) (A) (A) (A) (A) (A) (A) (A)
                 (A) (A) (A) (A) (A) (A) (A) (A) (A) (A) (A) (A)
                 (A) (A) (A) (A) (A) (A) (A) (A) (A) (A) (A) (A)
                 (A) (A) (A) (A) (A) (A) (A) (A) (A) (A) (A) (A)
                 (A) (A) (A) (A) (A) (A) (A) (A) (A) (A) (A) (A)
                 (A) (A) (A) (A) (A) (A) (A) (A) (A) (A) (A) (A)
                 (A) (A) (A) (A) (A) (A) (A) (A) (A) (A) (A) (A)
                 (A) (A) (A) (A) (A) (A) (A) (A) (A) (A) (A) (A)
                 (A) (A) (A) (A) (A) (A) (A) (A) (A) (A) (A) (A)
                 (A) (A) (A) (A) (A) (A) (A) (A) (A) (A) (A) (A)
                 (A) (A) (A) (A) (A) (A) (A) (A) (A) (A) (A) (A)
                 (A) (A) (A) (A) (A) (A) (A)
 Beta  Orbitals:
       Occupied  (A) (A) (A) (A) (A) (A) (A) (A) (A) (A) (A) (A)
                 (A) (A) (A) (A) (A) (A) (A) (A) (A) (A) (A) (A)
                 (A) (A) (A) (A) (A) (A) (A) (A) (A) (A) (A) (A)
                 (A) (A) (A) (A) (A) (A) (A) (A) (A) (A) (A) (A)
                 (A) (A) (A) (A) (A) (A) (A) (A) (A) (A) (A) (A)
                 (A) (A) (A) (A) (A) (A) (A) (A) (A) (A)
       Virtual   (A) (A) (A) (A) (A) (A) (A) (A) (A) (A) (A) (A)
                 (A) (A) (A) (A) (A) (A) (A) (A) (A) (A) (A) (A)
                 (A) (A) (A) (A) (A) (A) (A) (A) (A) (A) (A) (A)
                 (A) (A) (A) (A) (A) (A) (A) (A) (A) (A) (A) (A)
                 (A) (A) (A) (A) (A) (A) (A) (A) (A) (A) (A) (A)
                 (A) (A) (A) (A) (A) (A) (A) (A) (A) (A) (A) (A)
                 (A) (A) (A) (A) (A) (A) (A) (A) (A) (A) (A) (A)
                 (A) (A) (A) (A) (A) (A) (A) (A) (A) (A) (A) (A)
                 (A) (A) (A) (A) (A) (A) (A) (A) (A) (A) (A) (A)
                 (A) (A) (A) (A) (A) (A) (A) (A) (A) (A) (A) (A)
                 (A) (A) (A) (A) (A) (A) (A) (A) (A) (A) (A) (A)
                 (A) (A) (A) (A) (A) (A) (A) (A) (A) (A) (A) (A)
                 (A) (A) (A) (A) (A) (A) (A) (A) (A) (A) (A) (A)
                 (A) (A) (A) (A) (A) (A) (A) (A) (A) (A) (A) (A)
                 (A) (A) (A) (A) (A) (A) (A) (A) (A) (A) (A) (A)
                 (A) (A) (A) (A) (A) (A) (A) (A) (A) (A) (A) (A)
                 (A) (A) (A) (A) (A) (A) (A) (A) (A) (A) (A) (A)
                 (A) (A) (A) (A) (A) (A) (A) (A) (A) (A) (A) (A)
                 (A) (A) (A) (A) (A) (A) (A) (A) (A) (A) (A) (A)
                 (A) (A) (A) (A) (A) (A) (A) (A) (A) (A) (A) (A)
                 (A) (A) (A) (A) (A) (A) (A) (A) (A) (A) (A) (A)
                 (A) (A) (A) (A) (A) (A) (A) (A) (A) (A) (A) (A)
                 (A) (A) (A) (A) (A) (A) (A) (A) (A) (A) (A) (A)
                 (A) (A) (A) (A) (A) (A) (A) (A) (A) (A) (A) (A)
                 (A) (A) (A) (A) (A) (A) (A) (A) (A) (A) (A) (A)
                 (A) (A) (A) (A) (A) (A) (A) (A) (A) (A) (A) (A)
                 (A) (A) (A) (A) (A) (A) (A) (A) (A) (A) (A) (A)
                 (A) (A) (A) (A) (A) (A) (A) (A) (A) (A) (A) (A)
                 (A) (A) (A) (A) (A) (A) (A) (A) (A) (A) (A) (A)
                 (A) (A) (A) (A) (A) (A) (A) (A) (A) (A) (A) (A)
                 (A) (A) (A) (A) (A) (A) (A) (A)
 The electronic state is 2-A.
 Alpha  occ. eigenvalues --  -89.28820 -89.08211 -19.24730 -19.24256 -19.22602
 Alpha  occ. eigenvalues --  -14.48505 -10.29825 -10.29715 -10.29138 -10.28727
 Alpha  occ. eigenvalues --  -10.26168 -10.24901 -10.23187 -10.22725 -10.22661
 Alpha  occ. eigenvalues --  -10.22443  -8.22136  -8.04454  -6.15857  -6.15816
 Alpha  occ. eigenvalues --   -6.15700  -5.98296  -5.97916  -5.97195  -1.14670
 Alpha  occ. eigenvalues --   -1.13649  -1.04435  -0.93308  -0.85923  -0.84050
 Alpha  occ. eigenvalues --   -0.82276  -0.77265  -0.74912  -0.72056  -0.71221
 Alpha  occ. eigenvalues --   -0.70616  -0.64493  -0.62472  -0.59029  -0.56409
 Alpha  occ. eigenvalues --   -0.53124  -0.51822  -0.51302  -0.50767  -0.50248
 Alpha  occ. eigenvalues --   -0.48492  -0.47423  -0.46376  -0.46170  -0.45204
 Alpha  occ. eigenvalues --   -0.44658  -0.44021  -0.42725  -0.42408  -0.41638
 Alpha  occ. eigenvalues --   -0.40527  -0.40046  -0.39170  -0.38912  -0.36485
 Alpha  occ. eigenvalues --   -0.36397  -0.36133  -0.35737  -0.35647  -0.34596
 Alpha  occ. eigenvalues --   -0.33581  -0.31772  -0.28357  -0.27190  -0.26923
 Alpha  occ. eigenvalues --   -0.20035
 Alpha virt. eigenvalues --   -0.05431  -0.02497   0.00437   0.01051   0.02616
 Alpha virt. eigenvalues --    0.03427   0.03742   0.04541   0.04783   0.05003
 Alpha virt. eigenvalues --    0.05452   0.05830   0.06168   0.06282   0.06850
 Alpha virt. eigenvalues --    0.07844   0.08237   0.08328   0.09012   0.09249
 Alpha virt. eigenvalues --    0.09395   0.09732   0.10280   0.10834   0.10966
 Alpha virt. eigenvalues --    0.11368   0.11876   0.12580   0.13006   0.13686
 Alpha virt. eigenvalues --    0.14032   0.14334   0.14802   0.15129   0.15460
 Alpha virt. eigenvalues --    0.16010   0.16537   0.16597   0.17099   0.17652
 Alpha virt. eigenvalues --    0.18506   0.18748   0.19260   0.19494   0.19680
 Alpha virt. eigenvalues --    0.20030   0.20922   0.21321   0.21873   0.22440
 Alpha virt. eigenvalues --    0.23155   0.23471   0.24195   0.24360   0.25227
 Alpha virt. eigenvalues --    0.25959   0.26300   0.26595   0.27156   0.27641
 Alpha virt. eigenvalues --    0.28048   0.28576   0.28906   0.29342   0.29691
 Alpha virt. eigenvalues --    0.30293   0.30611   0.31414   0.31512   0.32004
 Alpha virt. eigenvalues --    0.32649   0.32933   0.33716   0.34308   0.34987
 Alpha virt. eigenvalues --    0.35620   0.36796   0.37801   0.37921   0.40587
 Alpha virt. eigenvalues --    0.41608   0.42135   0.42280   0.43001   0.44507
 Alpha virt. eigenvalues --    0.46200   0.47283   0.47574   0.48107   0.49989
 Alpha virt. eigenvalues --    0.50608   0.51187   0.51845   0.52104   0.52300
 Alpha virt. eigenvalues --    0.52956   0.53738   0.54365   0.55456   0.56172
 Alpha virt. eigenvalues --    0.56907   0.57482   0.58319   0.59835   0.60297
 Alpha virt. eigenvalues --    0.60591   0.61794   0.62551   0.63260   0.63960
 Alpha virt. eigenvalues --    0.64484   0.65010   0.65513   0.65678   0.66728
 Alpha virt. eigenvalues --    0.68100   0.68333   0.68572   0.70066   0.70991
 Alpha virt. eigenvalues --    0.72106   0.72660   0.72997   0.73349   0.74184
 Alpha virt. eigenvalues --    0.74904   0.75756   0.76471   0.77478   0.78548
 Alpha virt. eigenvalues --    0.78987   0.79681   0.80661   0.81830   0.82304
 Alpha virt. eigenvalues --    0.82818   0.83272   0.83899   0.84756   0.85523
 Alpha virt. eigenvalues --    0.85997   0.86983   0.88042   0.88658   0.88764
 Alpha virt. eigenvalues --    0.89076   0.89731   0.90353   0.91089   0.91778
 Alpha virt. eigenvalues --    0.92058   0.92887   0.94367   0.95037   0.95166
 Alpha virt. eigenvalues --    0.95917   0.97721   0.97798   0.98251   0.99155
 Alpha virt. eigenvalues --    1.00092   1.01572   1.02170   1.03380   1.04157
 Alpha virt. eigenvalues --    1.04862   1.07484   1.08600   1.09093   1.11418
 Alpha virt. eigenvalues --    1.12539   1.14357   1.15015   1.15877   1.17188
 Alpha virt. eigenvalues --    1.18581   1.20266   1.22214   1.22425   1.23624
 Alpha virt. eigenvalues --    1.25672   1.28661   1.30078   1.30688   1.32126
 Alpha virt. eigenvalues --    1.36124   1.37930   1.39542   1.40110   1.41369
 Alpha virt. eigenvalues --    1.44310   1.45210   1.45849   1.48004   1.48913
 Alpha virt. eigenvalues --    1.49883   1.50113   1.50767   1.52873   1.55990
 Alpha virt. eigenvalues --    1.57283   1.59357   1.62689   1.63084   1.63388
 Alpha virt. eigenvalues --    1.65534   1.65792   1.66645   1.68110   1.68519
 Alpha virt. eigenvalues --    1.69072   1.71456   1.72252   1.73131   1.74552
 Alpha virt. eigenvalues --    1.75285   1.76487   1.77875   1.78924   1.79406
 Alpha virt. eigenvalues --    1.79668   1.80141   1.80768   1.82118   1.82581
 Alpha virt. eigenvalues --    1.84025   1.85048   1.85341   1.86280   1.86440
 Alpha virt. eigenvalues --    1.87766   1.89444   1.92024   1.92389   1.93877
 Alpha virt. eigenvalues --    1.95159   1.95925   1.97937   1.98290   1.99341
 Alpha virt. eigenvalues --    1.99800   2.01681   2.03192   2.03971   2.05582
 Alpha virt. eigenvalues --    2.06605   2.07336   2.10197   2.11795   2.13539
 Alpha virt. eigenvalues --    2.14708   2.16175   2.17004   2.24980   2.25623
 Alpha virt. eigenvalues --    2.27928   2.28196   2.30942   2.33147   2.34443
 Alpha virt. eigenvalues --    2.36443   2.38738   2.39426   2.40250   2.40995
 Alpha virt. eigenvalues --    2.43124   2.44729   2.47224   2.48741   2.49621
 Alpha virt. eigenvalues --    2.53810   2.54430   2.55024   2.58018   2.58629
 Alpha virt. eigenvalues --    2.60661   2.63730   2.65237   2.66119   2.67566
 Alpha virt. eigenvalues --    2.70658   2.75607   2.75879   2.76947   2.80370
 Alpha virt. eigenvalues --    2.82528   2.82682   2.83136   2.83191   2.84141
 Alpha virt. eigenvalues --    2.84236   2.85298   2.86343   2.87010   2.87729
 Alpha virt. eigenvalues --    2.88238   2.89663   2.91209   2.93022   2.93624
 Alpha virt. eigenvalues --    2.94406   2.95658   2.96789   2.98007   2.98440
 Alpha virt. eigenvalues --    2.99286   3.02956   3.03689   3.03974   3.06525
 Alpha virt. eigenvalues --    3.08170   3.15643   3.18223   3.19454   3.20601
 Alpha virt. eigenvalues --    3.26185   3.28183   3.29535   3.31134   3.31791
 Alpha virt. eigenvalues --    3.34589   3.35618   3.37174   3.38440   3.40999
 Alpha virt. eigenvalues --    3.42196   3.43585   3.44895   3.47850   3.50180
 Alpha virt. eigenvalues --    3.53539   3.56937   3.60075   3.63569   3.64846
 Alpha virt. eigenvalues --    3.76718   3.94664   4.47105   4.57077   4.62139
 Alpha virt. eigenvalues --    4.64160   4.72305   4.73834   4.74609   4.86621
 Alpha virt. eigenvalues --    4.91317   5.03124   5.44667   5.81694   5.84376
 Alpha virt. eigenvalues --    6.08239  22.21321  22.63239  58.49137  58.49228
 Alpha virt. eigenvalues --   58.50362  58.50627  58.50866  58.55721  58.56186
 Alpha virt. eigenvalues --   58.56237  58.56509  58.56775  95.61950 106.32207
 Alpha virt. eigenvalues --  106.33233 106.39190
  Beta  occ. eigenvalues --  -89.28820 -89.08210 -19.24730 -19.24256 -19.21175
  Beta  occ. eigenvalues --  -14.47309 -10.29827 -10.29715 -10.29205 -10.28793
  Beta  occ. eigenvalues --  -10.26166 -10.24898 -10.23138 -10.22673 -10.22615
  Beta  occ. eigenvalues --  -10.22389  -8.22136  -8.04453  -6.15857  -6.15816
  Beta  occ. eigenvalues --   -6.15700  -5.98296  -5.97915  -5.97195  -1.14670
  Beta  occ. eigenvalues --   -1.11016  -1.04435  -0.92365  -0.85732  -0.83948
  Beta  occ. eigenvalues --   -0.82141  -0.77069  -0.73845  -0.71814  -0.71094
  Beta  occ. eigenvalues --   -0.70146  -0.64440  -0.62343  -0.58651  -0.55896
  Beta  occ. eigenvalues --   -0.53037  -0.51814  -0.51022  -0.50419  -0.48388
  Beta  occ. eigenvalues --   -0.47513  -0.47171  -0.46366  -0.46103  -0.44961
  Beta  occ. eigenvalues --   -0.44310  -0.43885  -0.42505  -0.41602  -0.41145
  Beta  occ. eigenvalues --   -0.40216  -0.40012  -0.38820  -0.37662  -0.36344
  Beta  occ. eigenvalues --   -0.36094  -0.35703  -0.35657  -0.34568  -0.33580
  Beta  occ. eigenvalues --   -0.32787  -0.31769  -0.28267  -0.26742  -0.25996
  Beta virt. eigenvalues --   -0.05433  -0.03691  -0.02450   0.00448   0.01056
  Beta virt. eigenvalues --    0.02637   0.03449   0.03781   0.04576   0.04873
  Beta virt. eigenvalues --    0.05037   0.05479   0.05875   0.06196   0.06311
  Beta virt. eigenvalues --    0.06922   0.07863   0.08278   0.08438   0.09041
  Beta virt. eigenvalues --    0.09344   0.09432   0.09807   0.10329   0.10896
  Beta virt. eigenvalues --    0.10980   0.11408   0.11970   0.12688   0.13099
  Beta virt. eigenvalues --    0.13743   0.14082   0.14384   0.14923   0.15224
  Beta virt. eigenvalues --    0.15705   0.16095   0.16598   0.16922   0.17275
  Beta virt. eigenvalues --    0.17763   0.18548   0.18895   0.19335   0.19772
  Beta virt. eigenvalues --    0.19801   0.20205   0.21021   0.21450   0.21965
  Beta virt. eigenvalues --    0.22541   0.23324   0.23518   0.24325   0.24732
  Beta virt. eigenvalues --    0.25409   0.26116   0.26378   0.26677   0.27203
  Beta virt. eigenvalues --    0.27704   0.28126   0.28735   0.29086   0.29417
  Beta virt. eigenvalues --    0.30079   0.30578   0.30735   0.31544   0.31867
  Beta virt. eigenvalues --    0.32083   0.32803   0.33166   0.33919   0.34371
  Beta virt. eigenvalues --    0.35075   0.35814   0.36826   0.37881   0.38003
  Beta virt. eigenvalues --    0.40616   0.41651   0.42203   0.42699   0.43120
  Beta virt. eigenvalues --    0.44683   0.46256   0.47372   0.47608   0.48164
  Beta virt. eigenvalues --    0.50165   0.50663   0.51398   0.51933   0.52255
  Beta virt. eigenvalues --    0.52357   0.52995   0.53956   0.54398   0.55513
  Beta virt. eigenvalues --    0.56258   0.56972   0.57555   0.58452   0.59992
  Beta virt. eigenvalues --    0.60414   0.60728   0.61843   0.62592   0.63438
  Beta virt. eigenvalues --    0.64031   0.64560   0.65091   0.65633   0.65956
  Beta virt. eigenvalues --    0.66806   0.68174   0.68531   0.68738   0.70268
  Beta virt. eigenvalues --    0.71261   0.72218   0.72763   0.73056   0.73430
  Beta virt. eigenvalues --    0.74386   0.74933   0.75885   0.76540   0.77522
  Beta virt. eigenvalues --    0.78770   0.79030   0.79907   0.80761   0.82032
  Beta virt. eigenvalues --    0.82428   0.82861   0.83337   0.84007   0.84838
  Beta virt. eigenvalues --    0.85569   0.86116   0.87087   0.88067   0.88728
  Beta virt. eigenvalues --    0.88804   0.89116   0.89783   0.90422   0.91153
  Beta virt. eigenvalues --    0.91852   0.92183   0.93159   0.94497   0.95127
  Beta virt. eigenvalues --    0.95245   0.96111   0.97775   0.98121   0.98983
  Beta virt. eigenvalues --    0.99550   1.00379   1.01871   1.02204   1.03481
  Beta virt. eigenvalues --    1.04264   1.04986   1.07542   1.08660   1.09429
  Beta virt. eigenvalues --    1.11751   1.12566   1.14419   1.15087   1.15988
  Beta virt. eigenvalues --    1.17433   1.18834   1.20711   1.22591   1.23103
  Beta virt. eigenvalues --    1.24403   1.26140   1.29053   1.30425   1.31638
  Beta virt. eigenvalues --    1.32369   1.36534   1.38220   1.39590   1.40172
  Beta virt. eigenvalues --    1.41454   1.44336   1.45409   1.46139   1.48314
  Beta virt. eigenvalues --    1.48964   1.49960   1.50157   1.50831   1.52912
  Beta virt. eigenvalues --    1.56173   1.57354   1.59481   1.62704   1.63104
  Beta virt. eigenvalues --    1.63402   1.65903   1.66011   1.67122   1.68227
  Beta virt. eigenvalues --    1.68545   1.69424   1.71565   1.72333   1.73233
  Beta virt. eigenvalues --    1.74625   1.75348   1.76567   1.77960   1.78978
  Beta virt. eigenvalues --    1.79454   1.79745   1.80227   1.80793   1.82189
  Beta virt. eigenvalues --    1.82705   1.84138   1.85088   1.85453   1.86438
  Beta virt. eigenvalues --    1.86548   1.87928   1.89547   1.92366   1.92566
  Beta virt. eigenvalues --    1.93926   1.95168   1.95942   1.98048   1.98466
  Beta virt. eigenvalues --    1.99671   2.00028   2.02055   2.03498   2.04142
  Beta virt. eigenvalues --    2.06170   2.06928   2.07545   2.10493   2.12439
  Beta virt. eigenvalues --    2.13640   2.14948   2.16224   2.17434   2.25620
  Beta virt. eigenvalues --    2.25982   2.28158   2.29236   2.31016   2.33218
  Beta virt. eigenvalues --    2.34599   2.36539   2.38741   2.39429   2.40373
  Beta virt. eigenvalues --    2.41376   2.43386   2.44825   2.47384   2.49272
  Beta virt. eigenvalues --    2.49746   2.53906   2.55204   2.55752   2.58453
  Beta virt. eigenvalues --    2.58743   2.60705   2.63782   2.65362   2.66170
  Beta virt. eigenvalues --    2.68506   2.70847   2.75707   2.76152   2.77255
  Beta virt. eigenvalues --    2.80570   2.82545   2.82728   2.83198   2.84023
  Beta virt. eigenvalues --    2.84188   2.85317   2.85956   2.86930   2.87042
  Beta virt. eigenvalues --    2.87946   2.89436   2.89869   2.91483   2.93076
  Beta virt. eigenvalues --    2.94533   2.95022   2.96241   2.96958   2.98162
  Beta virt. eigenvalues --    2.98504   2.99783   3.03143   3.04157   3.04515
  Beta virt. eigenvalues --    3.06617   3.08281   3.15969   3.19147   3.19625
  Beta virt. eigenvalues --    3.24229   3.26194   3.28186   3.29861   3.31172
  Beta virt. eigenvalues --    3.31899   3.34630   3.35628   3.37222   3.38464
  Beta virt. eigenvalues --    3.41070   3.42255   3.43737   3.44944   3.47950
  Beta virt. eigenvalues --    3.50327   3.53717   3.56963   3.60122   3.63675
  Beta virt. eigenvalues --    3.64873   3.76738   3.96365   4.47176   4.57137
  Beta virt. eigenvalues --    4.62140   4.64279   4.72382   4.73937   4.74713
  Beta virt. eigenvalues --    4.86748   4.91355   5.03125   5.46563   5.81706
  Beta virt. eigenvalues --    5.84377   6.10736  22.21322  22.63239  58.49135
  Beta virt. eigenvalues --   58.49228  58.50346  58.50587  58.50810  58.55765
  Beta virt. eigenvalues --   58.56232  58.56280  58.56557  58.56777  95.62883
  Beta virt. eigenvalues --  106.32209 106.33233 106.40327
          Condensed to atoms (all electrons):
               1          2          3          4          5          6
     1  O    8.673349  -0.021972  -0.088624  -0.001882   0.038391  -0.003638
     2  N   -0.021972   7.377920   0.082248  -0.058484  -0.021925   0.016299
     3  C   -0.088624   0.082248   5.447242   0.244553  -0.110473   0.018470
     4  C   -0.001882  -0.058484   0.244553   5.177388   0.614415  -0.031755
     5  C    0.038391  -0.021925  -0.110473   0.614415   5.420323   0.192461
     6  C   -0.003638   0.016299   0.018470  -0.031755   0.192461   5.225436
     7  S   -0.000785   0.005314   0.000052  -0.002819  -0.132465   0.258959
     8  C   -0.071689   0.054299  -0.137921  -0.065116   0.204889  -0.076624
     9  C   -0.010819  -0.090402   0.006800  -0.002347  -0.069719   0.009979
    10  C   -0.010332  -0.086869   0.018027  -0.011023  -0.073996   0.004393
    11  C   -0.006768  -0.106544   0.307182  -0.043123  -0.005749  -0.002616
    12  C   -0.001610  -0.091057   0.312476  -0.075531  -0.007269  -0.001469
    13  H   -0.000594   0.002781  -0.035261   0.405635  -0.049213  -0.001738
    14  H    0.000067  -0.002458   0.003529   0.024023  -0.083937   0.420357
    15  H    0.000111  -0.002645  -0.000309   0.004906  -0.063169   0.407648
    16  H   -0.001140   0.017717  -0.003116   0.003208  -0.001080  -0.000498
    17  H   -0.000678   0.005605  -0.000404   0.001152  -0.005636   0.002281
    18  H    0.007565  -0.022462   0.001275  -0.000916   0.008363  -0.001026
    19  H    0.008247  -0.027479  -0.001357  -0.001515   0.020404  -0.001448
    20  H   -0.000452   0.005443  -0.000722   0.001415  -0.003992   0.002571
    21  H   -0.000627   0.004241   0.000818   0.001052  -0.000126   0.003053
    22  H   -0.000393   0.001983  -0.057245  -0.000676   0.008576  -0.000731
    23  H   -0.000432   0.005906  -0.047482   0.002631   0.001184  -0.000044
    24  H    0.006648  -0.024703  -0.032368   0.015003  -0.002592   0.000091
    25  H    0.008088  -0.029404  -0.027567   0.016080  -0.001029   0.000024
    26  H   -0.000885   0.010717  -0.048467  -0.001749  -0.000164  -0.000020
    27  H   -0.000555   0.013852  -0.061825  -0.005152   0.004399  -0.000601
    28  S   -0.000017  -0.002181   0.000642  -0.030599  -0.008026  -0.004022
    29  O    0.000036   0.006263  -0.005210   0.028694   0.012735   0.005073
    30  O    0.000106  -0.000207  -0.007307   0.025297   0.021756  -0.023994
    31  C    0.000003   0.000214  -0.000738   0.002827   0.004835  -0.000414
    32  H    0.000000  -0.000010   0.000031  -0.000099  -0.000498   0.000209
    33  H   -0.000000   0.000006   0.000014  -0.000024   0.000133   0.000182
    34  H    0.000000  -0.000003  -0.000021  -0.000445  -0.000015  -0.000402
               7          8          9         10         11         12
     1  O   -0.000785  -0.071689  -0.010819  -0.010332  -0.006768  -0.001610
     2  N    0.005314   0.054299  -0.090402  -0.086869  -0.106544  -0.091057
     3  C    0.000052  -0.137921   0.006800   0.018027   0.307182   0.312476
     4  C   -0.002819  -0.065116  -0.002347  -0.011023  -0.043123  -0.075531
     5  C   -0.132465   0.204889  -0.069719  -0.073996  -0.005749  -0.007269
     6  C    0.258959  -0.076624   0.009979   0.004393  -0.002616  -0.001469
     7  S   15.873048  -0.002225   0.002676  -0.000650  -0.000214   0.000948
     8  C   -0.002225   5.446001   0.326531   0.322360   0.015021   0.021755
     9  C    0.002676   0.326531   5.012315  -0.085253  -0.005290   0.004955
    10  C   -0.000650   0.322360  -0.085253   5.033022   0.005253  -0.006269
    11  C   -0.000214   0.015021  -0.005290   0.005253   5.030892  -0.081080
    12  C    0.000948   0.021755   0.004955  -0.006269  -0.081080   5.024205
    13  H    0.000009   0.012757  -0.000906  -0.001555  -0.001000   0.003123
    14  H   -0.041806   0.003018  -0.000007  -0.001844  -0.000191  -0.000045
    15  H   -0.042129   0.007977  -0.001058   0.005854   0.000304  -0.000061
    16  H    0.000607  -0.065325   0.412737   0.009206   0.000147  -0.001313
    17  H    0.000939  -0.033666   0.398963  -0.004216   0.000163  -0.000168
    18  H    0.000214  -0.035086   0.411606  -0.004175   0.000009  -0.000245
    19  H    0.000092  -0.040655  -0.002432   0.416526  -0.000135   0.000040
    20  H   -0.000384  -0.038609  -0.003766   0.401852  -0.000065   0.000138
    21  H   -0.000961  -0.056490   0.008440   0.409597  -0.001053  -0.000045
    22  H    0.000001  -0.002403   0.000096  -0.001277   0.411938   0.008588
    23  H    0.000004  -0.001040   0.000131  -0.000062   0.406536  -0.002508
    24  H   -0.000014   0.000933  -0.000105  -0.000115   0.412220  -0.003856
    25  H   -0.000047  -0.002830  -0.000141   0.000067  -0.004278   0.409252
    26  H   -0.000004  -0.001026  -0.000149   0.000203  -0.002485   0.406139
    27  H   -0.000013   0.000070  -0.001320   0.000075   0.009066   0.412094
    28  S    0.310508   0.004352  -0.003742  -0.000181  -0.000728   0.002314
    29  O   -0.074652  -0.009324  -0.000617   0.000144   0.000257  -0.007014
    30  O   -0.082602  -0.004369   0.000746   0.000019   0.001022   0.000654
    31  C   -0.052700  -0.001264   0.000258   0.000051   0.000052  -0.000214
    32  H   -0.000796   0.000150  -0.000074  -0.000002  -0.000000  -0.000008
    33  H    0.001556  -0.000040  -0.000001   0.000001  -0.000000  -0.000006
    34  H    0.002438   0.000122   0.000002  -0.000001  -0.000000   0.000010
              13         14         15         16         17         18
     1  O   -0.000594   0.000067   0.000111  -0.001140  -0.000678   0.007565
     2  N    0.002781  -0.002458  -0.002645   0.017717   0.005605  -0.022462
     3  C   -0.035261   0.003529  -0.000309  -0.003116  -0.000404   0.001275
     4  C    0.405635   0.024023   0.004906   0.003208   0.001152  -0.000916
     5  C   -0.049213  -0.083937  -0.063169  -0.001080  -0.005636   0.008363
     6  C   -0.001738   0.420357   0.407648  -0.000498   0.002281  -0.001026
     7  S    0.000009  -0.041806  -0.042129   0.000607   0.000939   0.000214
     8  C    0.012757   0.003018   0.007977  -0.065325  -0.033666  -0.035086
     9  C   -0.000906  -0.000007  -0.001058   0.412737   0.398963   0.411606
    10  C   -0.001555  -0.001844   0.005854   0.009206  -0.004216  -0.004175
    11  C   -0.001000  -0.000191   0.000304   0.000147   0.000163   0.000009
    12  C    0.003123  -0.000045  -0.000061  -0.001313  -0.000168  -0.000245
    13  H    0.508798   0.002246  -0.000017  -0.000032  -0.000001   0.000004
    14  H    0.002246   0.490332  -0.014267  -0.000039  -0.000016   0.000001
    15  H   -0.000017  -0.014267   0.530573   0.000092  -0.000051   0.000013
    16  H   -0.000032  -0.000039   0.000092   0.537158  -0.019799  -0.015372
    17  H   -0.000001  -0.000016  -0.000051  -0.019799   0.566163  -0.020835
    18  H    0.000004   0.000001   0.000013  -0.015372  -0.020835   0.527937
    19  H    0.000005   0.000004  -0.000034  -0.000013  -0.000259   0.001900
    20  H    0.000002   0.000014  -0.000128   0.000083   0.001224  -0.000159
    21  H   -0.000019   0.000001  -0.000197  -0.000139   0.000084   0.000036
    22  H    0.000149   0.000004   0.000001  -0.000001  -0.000000  -0.000000
    23  H    0.000579   0.000001   0.000000   0.000000  -0.000000   0.000000
    24  H    0.000004   0.000000  -0.000000  -0.000000   0.000000  -0.000002
    25  H   -0.000032  -0.000000   0.000000   0.000005   0.000000  -0.000007
    26  H    0.000116  -0.000001   0.000000   0.000008  -0.000000  -0.000000
    27  H   -0.000176  -0.000002   0.000000   0.000246   0.000009  -0.000001
    28  S    0.003080  -0.013418   0.003065  -0.000942  -0.000921   0.000354
    29  O   -0.000333   0.000960  -0.000799  -0.000027   0.000165   0.000004
    30  O   -0.000859   0.011341  -0.001302   0.000080   0.000025  -0.000010
    31  C   -0.000101   0.000426  -0.000073   0.000034   0.000047  -0.000002
    32  H    0.000000   0.000005  -0.000000  -0.000000  -0.000000   0.000000
    33  H    0.000000  -0.000011   0.000000   0.000000   0.000000  -0.000000
    34  H    0.000001   0.000027  -0.000000  -0.000000  -0.000000   0.000000
              19         20         21         22         23         24
     1  O    0.008247  -0.000452  -0.000627  -0.000393  -0.000432   0.006648
     2  N   -0.027479   0.005443   0.004241   0.001983   0.005906  -0.024703
     3  C   -0.001357  -0.000722   0.000818  -0.057245  -0.047482  -0.032368
     4  C   -0.001515   0.001415   0.001052  -0.000676   0.002631   0.015003
[...]
     6  C   -0.049063  -0.000700
     7  S   -0.022097   0.000744
     8  C    0.225466  -0.035864
     9  C    0.060275   0.021443
    10  C    0.037541   0.022588
    11  C    0.043068   0.021417
    12  C    0.055951   0.022344
    28  S    0.891403  -0.000074
    29  O   -0.510924   0.000024
    30  O   -0.570533   0.000042
    31  C    0.150853  -0.000005
 Electronic spatial extent (au):  <R**2>=           4772.1355
 Charge=             -0.0000 electrons
 Dipole moment (field-independent basis, Debye):
    X=              4.2413    Y=              1.8547    Z=             -2.0676  Tot=              5.0699
 Quadrupole moment (field-independent basis, Debye-Ang):
   XX=           -108.1524   YY=           -109.0592   ZZ=           -115.9675
   XY=              5.6771   XZ=              6.4448   YZ=             -0.6219
 Traceless Quadrupole moment (field-independent basis, Debye-Ang):
   XX=              2.9073   YY=              2.0005   ZZ=             -4.9078
   XY=              5.6771   XZ=              6.4448   YZ=             -0.6219
 Octapole moment (field-independent basis, Debye-Ang**2):
  XXX=            189.6660  YYY=             -3.8287  ZZZ=              0.3866  XYY=            -14.2084
  XXY=             -7.9437  XXZ=             -8.5503  XZZ=             -0.7934  YZZ=              6.0314
  YYZ=             -2.3425  XYZ=              0.5376
 Hexadecapole moment (field-independent basis, Debye-Ang**3):
 XXXX=          -3985.7574 YYYY=          -1374.1242 ZZZZ=           -670.3763 XXXY=            -14.7339
 XXXZ=            121.3957 YYYX=            -15.6874 YYYZ=              0.8855 ZZZX=            -11.8780
 ZZZY=             -1.9122 XXYY=           -937.1771 XXZZ=           -856.0379 YYZZ=           -348.2191
 XXYZ=             -4.2959 YYXZ=             -4.4160 ZZXY=             14.8398
 N-N= 1.520880869305D+03 E-N=-6.497153286821D+03  KE= 1.459887700294D+03
                          Isotropic Fermi Contact Couplings
        Atom                 a.u.       MegaHertz       Gauss      10(-4) cm-1
     1  O(17)              0.08636     -52.35238     -18.68063     -17.46287
     2  N(14)              0.10517      33.98152      12.12545      11.33502
     3  C(13)             -0.01523     -17.11877      -6.10840      -5.71021
     4  C(13)              0.00005       0.06089       0.02173       0.02031
     5  C(13)             -0.00047      -0.53266      -0.19007      -0.17768
     6  C(13)             -0.00061      -0.68424      -0.24415      -0.22824
     7  S(33)              0.00002       0.00615       0.00219       0.00205
     8  C(13)             -0.01526     -17.15966      -6.12299      -5.72385
     9  C(13)              0.01706      19.17843       6.84334       6.39723
    10  C(13)              0.01387      15.59632       5.56515       5.20237
    11  C(13)              0.01270      14.28058       5.09567       4.76349
    12  C(13)              0.01811      20.36341       7.26617       6.79250
    13  H(1)              -0.00030      -1.35525      -0.48359      -0.45206
    14  H(1)              -0.00003      -0.15427      -0.05505      -0.05146
    15  H(1)               0.00005       0.23596       0.08420       0.07871
    16  H(1)              -0.00034      -1.51387      -0.54019      -0.50497
    17  H(1)               0.00043       1.92989       0.68863       0.64374
    18  H(1)              -0.00051      -2.26747      -0.80909      -0.75635
    19  H(1)              -0.00051      -2.29518      -0.81898      -0.76559
    20  H(1)               0.00025       1.11542       0.39801       0.37207
    21  H(1)              -0.00039      -1.74280      -0.62188      -0.58134
    22  H(1)              -0.00039      -1.72884      -0.61689      -0.57668
    23  H(1)               0.00020       0.88961       0.31743       0.29674
    24  H(1)              -0.00048      -2.14724      -0.76619      -0.71624
    25  H(1)              -0.00050      -2.21344      -0.78981      -0.73832
    26  H(1)               0.00049       2.17669       0.77670       0.72607
    27  H(1)              -0.00034      -1.53971      -0.54941      -0.51359
    28  S(33)             -0.00001      -0.00399      -0.00142      -0.00133
    29  O(17)             -0.00001       0.00501       0.00179       0.00167
    30  O(17)             -0.00002       0.00981       0.00350       0.00327
    31  C(13)              0.00001       0.01207       0.00431       0.00403
    32  H(1)              -0.00000      -0.00031      -0.00011      -0.00010
    33  H(1)               0.00000       0.00617       0.00220       0.00206
    34  H(1)               0.00000       0.00021       0.00008       0.00007
 --------------------------------------------------------
       Center         ----  Spin Dipole Couplings  ----
                      3XX-RR        3YY-RR        3ZZ-RR
 --------------------------------------------------------
     1   Atom       -0.570724     -0.906027      1.476751
     2   Atom       -0.294010     -0.569025      0.863035
     3   Atom       -0.007263      0.010301     -0.003039
     4   Atom        0.006741     -0.005475     -0.001266
     5   Atom        0.009547     -0.006956     -0.002592
     6   Atom        0.002026     -0.001291     -0.000734
     7   Atom        0.003276     -0.001517     -0.001759
     8   Atom        0.000405      0.005404     -0.005810
     9   Atom       -0.010703      0.001836      0.008867
    10   Atom       -0.007388      0.017503     -0.010115
    11   Atom        0.002125      0.000528     -0.002653
    12   Atom       -0.016777      0.018485     -0.001708
    13   Atom        0.001639     -0.001178     -0.000461
    14   Atom        0.001418     -0.001232     -0.000186
    15   Atom        0.001155     -0.000678     -0.000477
    16   Atom        0.003418     -0.003315     -0.000103
    17   Atom        0.000391      0.002153     -0.002544
    18   Atom       -0.002279      0.003961     -0.001681
    19   Atom       -0.004969      0.010286     -0.005317
    20   Atom       -0.001165      0.003921     -0.002756
    21   Atom       -0.005400      0.000429      0.004971
    22   Atom       -0.005223     -0.002180      0.007402
    23   Atom       -0.002558      0.003506     -0.000948
    24   Atom       -0.002373      0.005029     -0.002656
    25   Atom       -0.004388      0.008736     -0.004348
    26   Atom       -0.002667      0.005289     -0.002622
    27   Atom        0.000018      0.001764     -0.001782
    28   Atom        0.001438     -0.000737     -0.000701
    29   Atom        0.001507     -0.000708     -0.000799
    30   Atom        0.001110     -0.000618     -0.000492
    31   Atom        0.000676     -0.000335     -0.000341
    32   Atom        0.000629     -0.000314     -0.000315
    33   Atom        0.000524     -0.000251     -0.000273
    34   Atom        0.000554     -0.000287     -0.000267
 --------------------------------------------------------
                        XY            XZ            YZ
 --------------------------------------------------------
     1   Atom       -0.203915      1.118702     -0.484410
     2   Atom       -0.137623      0.685434     -0.292088
     3   Atom       -0.006597     -0.002152      0.007719
     4   Atom       -0.006306     -0.006255      0.003586
     5   Atom        0.002213     -0.006893     -0.001830
     6   Atom        0.000889     -0.001795     -0.000407
     7   Atom        0.001487      0.000608      0.000377
     8   Atom        0.011686     -0.002645     -0.004015
     9   Atom        0.010627      0.008535      0.022049
    10   Atom       -0.012694      0.005356     -0.018090
    11   Atom        0.014453      0.014189      0.017425
    12   Atom       -0.004988      0.000727     -0.022823
    13   Atom       -0.002638     -0.002921      0.001905
    14   Atom        0.000293     -0.001656     -0.000237
    15   Atom        0.001536     -0.001639     -0.000953
    16   Atom        0.003849      0.007370      0.001994
    17   Atom        0.005157      0.000601      0.001044
    18   Atom        0.005040      0.002145      0.008041
    19   Atom       -0.001027     -0.001360     -0.005548
    20   Atom        0.003189     -0.001002     -0.003313
    21   Atom        0.000791      0.000249     -0.007300
    22   Atom        0.000779      0.002981      0.005464
    23   Atom       -0.000858     -0.000006      0.004769
    24   Atom        0.005361      0.001729      0.007363
    25   Atom       -0.001258     -0.001198     -0.005682
    26   Atom       -0.003466     -0.000584      0.000580
    27   Atom       -0.006239      0.005191     -0.004069
    28   Atom       -0.000189     -0.000194      0.000031
    29   Atom       -0.000547      0.000329     -0.000077
    30   Atom       -0.000344     -0.000564      0.000142
    31   Atom       -0.000041     -0.000052      0.000002
    32   Atom        0.000042      0.000066      0.000003
    33   Atom       -0.000121     -0.000025      0.000004
    34   Atom        0.000024     -0.000140     -0.000004
 --------------------------------------------------------


 ---------------------------------------------------------------------------------
              Anisotropic Spin Dipole Couplings in Principal Axis System
 ---------------------------------------------------------------------------------

       Atom             a.u.   MegaHertz   Gauss  10(-4) cm-1        Axes

              Baa    -1.0645    77.027    27.485    25.693  0.8987 -0.1268 -0.4198
     1 O(17)  Bbb    -0.9980    72.211    25.767    24.087  0.1874  0.9765  0.1064
              Bcc     2.0625  -149.239   -53.252   -49.781  0.3964 -0.1743  0.9014
 
              Baa    -0.6269   -24.178    -8.627    -8.065  0.1810  0.9775  0.1084
     2 N(14)  Bbb    -0.6122   -23.612    -8.425    -7.876  0.8917 -0.1166 -0.4374
              Bcc     1.2391    47.790    17.053    15.941  0.4149 -0.1758  0.8927
 
              Baa    -0.0095    -1.276    -0.455    -0.426  0.9289  0.3530 -0.1121
     3 C(13)  Bbb    -0.0064    -0.856    -0.305    -0.286  0.2357 -0.3298  0.9141
              Bcc     0.0159     2.132     0.761     0.711 -0.2857  0.8756  0.3896
 
              Baa    -0.0083    -1.117    -0.399    -0.373  0.3056  0.9305 -0.2020
     4 C(13)  Bbb    -0.0047    -0.629    -0.224    -0.210  0.4916  0.0275  0.8704
              Bcc     0.0130     1.746     0.623     0.582  0.8154 -0.3653 -0.4490
 
              Baa    -0.0076    -1.024    -0.365    -0.342  0.0345  0.9233  0.3824
     5 C(13)  Bbb    -0.0054    -0.727    -0.259    -0.242  0.4338 -0.3586  0.8266
              Bcc     0.0130     1.751     0.625     0.584  0.9003  0.1374 -0.4129
 
              Baa    -0.0016    -0.218    -0.078    -0.073  0.4730 -0.2199  0.8532
     6 C(13)  Bbb    -0.0015    -0.201    -0.072    -0.067 -0.0896  0.9513  0.2949
              Bcc     0.0031     0.419     0.150     0.140  0.8765  0.2160 -0.4303
 
              Baa    -0.0021    -0.086    -0.031    -0.029 -0.1462  0.7777 -0.6114
     7 S(33)  Bbb    -0.0017    -0.069    -0.025    -0.023 -0.2648  0.5647  0.7816
              Bcc     0.0038     0.155     0.055     0.052  0.9532  0.2761  0.1234
 
              Baa    -0.0091    -1.226    -0.438    -0.409  0.7380 -0.6465 -0.1933
     8 C(13)  Bbb    -0.0068    -0.909    -0.324    -0.303  0.2864  0.0407  0.9572
              Bcc     0.0159     2.135     0.762     0.712  0.6110  0.7619 -0.2152
 
              Baa    -0.0186    -2.495    -0.890    -0.832 -0.5294  0.7342 -0.4251
     9 C(13)  Bbb    -0.0133    -1.786    -0.637    -0.596  0.7933  0.2509 -0.5547
              Bcc     0.0319     4.281     1.527     1.428  0.3007  0.6308  0.7153
 
              Baa    -0.0192    -2.570    -0.917    -0.857  0.1080  0.4698  0.8761
    10 C(13)  Bbb    -0.0122    -1.635    -0.583    -0.545  0.9361  0.2487 -0.2488
              Bcc     0.0313     4.205     1.501     1.403 -0.3348  0.8470 -0.4129
 
              Baa    -0.0186    -2.499    -0.892    -0.833 -0.0808 -0.6368  0.7668
    11 C(13)  Bbb    -0.0121    -1.628    -0.581    -0.543  0.8124 -0.4878 -0.3194
              Bcc     0.0308     4.127     1.472     1.376  0.5774  0.5971  0.5568
 
              Baa    -0.0190    -2.551    -0.910    -0.851  0.7542  0.4117  0.5115
    12 C(13)  Bbb    -0.0148    -1.980    -0.706    -0.660 -0.6504  0.3612  0.6682
              Bcc     0.0338     4.530     1.617     1.511 -0.0903  0.8367 -0.5402
 
              Baa    -0.0028    -1.500    -0.535    -0.500  0.2927  0.8876 -0.3557
    13 H(1)   Bbb    -0.0025    -1.340    -0.478    -0.447  0.6174  0.1086  0.7791
              Bcc     0.0053     2.839     1.013     0.947  0.7302 -0.4476 -0.5162
 
              Baa    -0.0013    -0.692    -0.247    -0.231  0.2061  0.8481  0.4880
    14 H(1)   Bbb    -0.0012    -0.638    -0.228    -0.213  0.4980 -0.5202  0.6938
              Bcc     0.0025     1.331     0.475     0.444  0.8423  0.1000 -0.5296
 
              Baa    -0.0016    -0.830    -0.296    -0.277 -0.3553  0.8993  0.2552
    15 H(1)   Bbb    -0.0015    -0.796    -0.284    -0.265  0.5374 -0.0269  0.8429
              Bcc     0.0030     1.626     0.580     0.542  0.7648  0.4366 -0.4737
 
              Baa    -0.0063    -3.357    -1.198    -1.120  0.6490 -0.4101 -0.6408
    16 H(1)   Bbb    -0.0043    -2.270    -0.810    -0.757  0.0495  0.8633 -0.5023
              Bcc     0.0105     5.627     2.008     1.877  0.7592  0.2943  0.5805
 
              Baa    -0.0040    -2.131    -0.760    -0.711  0.7426 -0.6502  0.1602
    17 H(1)   Bbb    -0.0027    -1.421    -0.507    -0.474 -0.2048  0.0072  0.9788
              Bcc     0.0067     3.552     1.267     1.185  0.6376  0.7597  0.1279
 
              Baa    -0.0077    -4.129    -1.473    -1.377  0.2911 -0.6239  0.7252
    18 H(1)   Bbb    -0.0040    -2.124    -0.758    -0.708  0.8869 -0.1082 -0.4491
              Bcc     0.0117     6.252     2.231     2.086  0.3586  0.7740  0.5219
 
              Baa    -0.0080    -4.246    -1.515    -1.416  0.4757  0.2803  0.8337
    19 H(1)   Bbb    -0.0041    -2.197    -0.784    -0.733  0.8790 -0.1155 -0.4627
              Bcc     0.0121     6.443     2.299     2.149 -0.0334  0.9529 -0.3013
 
              Baa    -0.0042    -2.223    -0.793    -0.742 -0.1557  0.4264  0.8910
    20 H(1)   Bbb    -0.0025    -1.350    -0.482    -0.450  0.9074 -0.2947  0.2996
              Bcc     0.0067     3.574     1.275     1.192  0.3903  0.8552 -0.3411
 
              Baa    -0.0060    -3.197    -1.141    -1.067  0.8001 -0.4908 -0.3449
    21 H(1)   Bbb    -0.0044    -2.325    -0.830    -0.776  0.5996  0.6379  0.4832
              Bcc     0.0104     5.522     1.971     1.842 -0.0171 -0.5935  0.8047
 
              Baa    -0.0060    -3.204    -1.143    -1.069  0.9184  0.2505 -0.3063
    22 H(1)   Bbb    -0.0045    -2.381    -0.850    -0.794 -0.3470  0.8820 -0.3190
              Bcc     0.0105     5.585     1.993     1.863  0.1903  0.3992  0.8969
 
              Baa    -0.0041    -2.199    -0.785    -0.734 -0.2883 -0.5307  0.7970
    23 H(1)   Bbb    -0.0025    -1.322    -0.472    -0.441  0.9543 -0.0903  0.2850
              Bcc     0.0066     3.522     1.257     1.175 -0.0793  0.8427  0.5325
 
              Baa    -0.0076    -4.058    -1.448    -1.354  0.3481 -0.5779  0.7381
    24 H(1)   Bbb    -0.0040    -2.157    -0.770    -0.720  0.8631 -0.1098 -0.4930
              Bcc     0.0116     6.215     2.218     2.073  0.3660  0.8087  0.4605
 
              Baa    -0.0073    -3.903    -1.393    -1.302  0.4749  0.3265  0.8172
    25 H(1)   Bbb    -0.0036    -1.912    -0.682    -0.638  0.8786 -0.1231 -0.4614
              Bcc     0.0109     5.814     2.075     1.939 -0.0501  0.9371 -0.3454
 
              Baa    -0.0041    -2.161    -0.771    -0.721  0.9145  0.3243  0.2420
    26 H(1)   Bbb    -0.0026    -1.386    -0.494    -0.462 -0.1995 -0.1588  0.9669
              Bcc     0.0066     3.547     1.266     1.183 -0.3520  0.9325  0.0805
 
              Baa    -0.0064    -3.422    -1.221    -1.141  0.7508  0.2737 -0.6012
    27 H(1)   Bbb    -0.0042    -2.236    -0.798    -0.746  0.2592  0.7151  0.6492
              Bcc     0.0106     5.658     2.019     1.887 -0.6076  0.6432 -0.4659
 
              Baa    -0.0008    -0.031    -0.011    -0.010  0.0515  0.9415 -0.3331
    28 S(33)  Bbb    -0.0007    -0.029    -0.010    -0.010  0.1133  0.3258  0.9386
              Bcc     0.0015     0.060     0.022     0.020  0.9922 -0.0860 -0.0899
 
              Baa    -0.0008     0.061     0.022     0.020 -0.1214  0.0737  0.9899
    29 O(17)  Bbb    -0.0008     0.060     0.022     0.020  0.2331  0.9715 -0.0438
              Bcc     0.0017    -0.122    -0.043    -0.041  0.9649 -0.2254  0.1351
 
              Baa    -0.0007     0.051     0.018     0.017 -0.0447  0.7822 -0.6215
    30 O(17)  Bbb    -0.0006     0.047     0.017     0.016  0.3489  0.5951  0.7239
              Bcc     0.0014    -0.098    -0.035    -0.033  0.9361 -0.1845 -0.2995
 
              Baa    -0.0003    -0.046    -0.016    -0.015  0.0531  0.0517  0.9972
    31 C(13)  Bbb    -0.0003    -0.045    -0.016    -0.015  0.0372  0.9979 -0.0537
              Bcc     0.0007     0.091     0.033     0.030  0.9979 -0.0399 -0.0511
 
              Baa    -0.0003    -0.171    -0.061    -0.057 -0.0708  0.0260  0.9972
    32 H(1)   Bbb    -0.0003    -0.168    -0.060    -0.056 -0.0420  0.9987 -0.0290
              Bcc     0.0006     0.339     0.121     0.113  0.9966  0.0440  0.0696
 
              Baa    -0.0003    -0.146    -0.052    -0.049  0.0339  0.0156  0.9993
    33 H(1)   Bbb    -0.0003    -0.144    -0.051    -0.048  0.1504  0.9884 -0.0205
              Bcc     0.0005     0.290     0.103     0.097  0.9880 -0.1510 -0.0311
 
              Baa    -0.0003    -0.155    -0.055    -0.052  0.1662 -0.1468  0.9751
    34 H(1)   Bbb    -0.0003    -0.153    -0.055    -0.051 -0.0039  0.9888  0.1495
              Bcc     0.0006     0.308     0.110     0.103  0.9861  0.0286 -0.1638
 

 ---------------------------------------------------------------------------------

 No NMR shielding tensors so no spin-rotation constants.
 Leave Link  601 at Mon Jun 17 21:22:35 2019, MaxMem=  8053063680 cpu:               0.0 elap:               0.3
 (Enter /data2/g16/g16/l9999.exe)
 1\1\GINC-CU02\SP\UPBE1PBE\Gen\C10H18N1O3S2(2)\ROOT\17-Jun-2019\0\\#p g
 en 6d pbe1pbe\\start preoptimized\\0,2\O,0,-3.753882,0.203049,0.888201
 \N,0,-2.611231,0.035869,0.375621\C,0,-2.161633,-1.267829,-0.157932\C,0
 ,-0.879483,-0.851492,-0.816739\C,0,-0.605004,0.448174,-0.657388\C,0,0.
 605345,1.125176,-1.198788\S,0,1.942767,1.441961,0.033285\C,0,-1.692906
 ,1.165435,0.113541\C,0,-1.238336,1.76351,1.448411\C,0,-2.421499,2.2208
 54,-0.722714\C,0,-3.206501,-1.810344,-1.13618\C,0,-1.927442,-2.255864,
 0.989431\H,0,-0.238133,-1.561274,-1.332513\H,0,1.061989,0.539049,-2.00
 2542\H,0,0.388148,2.128595,-1.583368\H,0,-0.672115,1.03444,2.036819\H,
 0,-0.606383,2.643865,1.292361\H,0,-2.124328,2.068691,2.016022\H,0,-3.3
 15392,2.547135,-0.184046\H,0,-1.781985,3.09463,-0.891669\H,0,-2.726898
 ,1.812768,-1.692386\H,0,-3.358285,-1.120058,-1.970764\H,0,-2.887584,-2
 .777533,-1.535076\H,0,-4.159869,-1.940548,-0.612338\H,0,-2.859751,-2.3
 99114,1.54697\H,0,-1.600577,-3.224513,0.597368\H,0,-1.157309,-1.88335,
 1.674299\S,0,2.758223,-0.534288,0.109676\O,0,2.335832,-1.21259,1.35252
 4\O,0,2.507039,-1.182062,-1.204159\C,0,4.510088,-0.17028,0.246746\H,0,
 4.660752,0.446618,1.133587\H,0,4.998213,-1.141587,0.362606\H,0,4.83039
 8,0.333314,-0.666595\\Version=AM64L-G16RevB.01\State=2-A\HF=-1467.5485
 625\S2=0.755007\S2-1=0.\S2A=0.750017\RMSD=8.809e-09\Dipole=1.6717467,0
 .7271711,-0.8093983\Quadrupole=2.1568335,1.4722849,-3.6291184,4.217110
 7,4.8059488,-0.45877\PG=C01 [X(C10H18N1O3S2)]\\@


 IF YOU GIVE A BOY AND A PIG EVERYTHING THEY WANT,
 YOU'LL GET A BAD BOY AND A GOOD PIG.
 Elapsed time:       0 days  0 hours  2 minutes 40.8 seconds.
 File lengths (MBytes):  RWF=    181 Int=      0 D2E=      0 Chk=     15 Scr=      1
 Normal termination of Gaussian 16 at Mon Jun 17 21:22:35 2019.
