 Entering Gaussian System, Link 0=g16
 AtFile(1): /home/malgo/Basis_sets/n07d_pbe0.gbs
            -H 0
             6-31G
             S   1 1.00       0.000000000000
                  0.4000000000D+00  0.10000000D+01
             P   1 1.00       0.000000000000
                  0.7500000000D+00  0.10000000D+01
             ****
             -He 0
             6-31+G**
             ****
             -Li 0
             6-31+G**
             ****
             -Be 0
             6-31+G**
             ****
             -B 0
             6-31G
             S   1 1.00       0.000000000000
                  0.7000000000D+01  0.1000000000D+01
             P   1 1.00       0.000000000000
                  0.3500000000D-01  0.1000000000D+01
             D   1 1.00
                  0.3430000000D+00  0.1000000000D+01
             ****
             -C 0
             6-31G
             S   1 1.00       0.000000000000
                  0.8700000000D+01  0.1000000000D+01
             P   1 1.00       0.000000000000
                  0.5000000000D-01  0.1000000000D+01
             D   1 1.00
                  0.8200000000D+00  0.1000000000D+01
             ****
             -N 0
             6-31G
             S   1 1.00       0.000000000000
                  0.1370000000D+02  0.1000000000D+01
             P   1 1.00       0.000000000000
                  0.5300000000D-01  0.1000000000D+01
             D   1 1.00       0.000000000000
                  0.1015000000D+01  0.1000000000D+01
             ****
             -O 0
             6-31G
             S   1 1.00
                  0.1600000000D+02  0.1000000000D+01
             P   1 1.00       0.000000000000
                  0.6500000000D-01  0.1000000000D+01
             D   1 1.00        0.000000000000
                  0.1190000000D+01  0.1000000000D+01
             D   1 1.00        0.000000000000
                  0.1800000000D+00  0.1000000000D+01
             ****
             -F 0
             6-31G
             S   1 1.00
                  0.1770000000D+02  0.1000000000D+01
             P   1 1.00       0.000000000000
                  0.8300000000D-01  0.1000000000D+01
             D   1 1.00       0.000000000000
                  1.3700000000D+00  0.1000000000D+01
             D   1 1.00       0.000000000000
                  0.2300000000D+00  0.1000000000D+01
             ****
             -Ne 0
             6-31+G**
             ****
             -Na 0
             6-31+G**
             ****
             -Mg 0
             6-31+G**
             ****
             -Al 0
             6-31G
             S   1 1.00      0.000000000000
                  0.3100000000D+01  0.1000000000D+01
             P   1 1.00      0.000000000000
                  0.1500000000D-01  0.1000000000D+01
             D   1 1.00      0.000000000000
                  0.1890000000D+00  0.1000000000D+01
             ****
             -Si 0
             6-31G
             S   1 1.00      0.000000000000
                  0.5000000000D+01  0.1000000000D+01
             P   1 1.00       0.000000000000
                  0.3300000000D-01  0.1000000000D+01
             D   1 1.0        0.000000000000
                  0.2750000000D+00  0.1000000000D+01
             ****
             -P  0
             6-31G
             S   1 1.00       0.000000000000
                  0.6300000000D+01  0.1000000000D+01
             P   1 1.00       0.000000000000
                  0.3500000000D-01  0.1000000000D+01
             D   1 1.00       0.000000000000
                  0.3730000000D+00  0.1000000000D+01
             ****
             -S  0
             6-31G
             S   1  1.00      0.000000000000
                  0.7500000000D+01  0.1000000000D+01
             P   1 1.00       0.000000000000
                  0.4100000000D-01  0.1000000000D+01
             D   1 1.00       0.000000000000
                  0.4790000000D+00  0.1000000000D+01
             ****
            -Cl 0
             6-31G
             S   1 1.00       0.000000000000
                  0.8500000000D+01  0.1000000000D+01
             P   1 1.00       0.000000000000
                  0.4800000000D-01  0.1000000000D+01
             D   1 1.00       0.000000000000
                  0.6000000000D+00  0.1000000000D+01
             D   1 1.00       0.000000000000
                  0.1960000000D+00  0.1000000000D+01
             ****
            -Br 0
             S   3 1.00       0.000000000000
                  0.4721881000D+01  0.1749732514D+00
                  0.2257555000D+01 -0.7074172290D+00
                  0.3896080000D+00  0.1258999543D+01
             S   1 1.00       0.000000000000
                  0.1471340000D+00  0.1000000000D+01
             P   3 1.00       0.000000000000
                  0.1896942000D+01 -0.2464576731D+00
                  0.9108990000D+00  0.3623179892D+00
                  0.3168550000D+00  0.8338469725D+00
             P   1 1.00       0.000000000000
                  0.1095030000D+00  0.1000000000D+01
             P   1 1.00       0.000000000000
                  0.3609700000D-01  0.1000000000D+01
             D   1 1.00
                  0.4750000000D+00  0.1000000000D+01
             D   1 1.00
                  0.1280000000D+00  0.1000000000D+01
             ****
            -I   0
             S   3 1.00       0.000000000000
                  0.2122765000D+01  0.2063429899D+01
                  0.1770481000D+01 -0.2869526473D+01
                  0.3130840000D+00  0.1404747074D+01
             S   1 1.00       0.000000000000
                  0.1320000000D+00  0.1000000000D+01
             P   3 1.00       0.000000000000
                  0.2432887000D+01  0.7732753148D+00
                  0.2137249000D+01 -0.1020833156D+01
                  0.3145460000D+00  0.1095666871D+01
             P   1 1.00       0.000000000000
                  0.1049450000D+00  0.1000000000D+01
             P   1 1.00       0.000000000000
                  0.3264100000D-01  0.1000000000D+01
             D   1 1.00
                  0.300000000          1.00000000
             D   1 1.00
                  0.090000000          1.00000000
             ****
             -Zn 0
             SP   6 1.00       0.000000000000
                  0.6936492000D+02 -0.4440098182D-02 -0.7689261805D-02
                  0.2362082000D+02  0.7505253308D-01 -0.2997981924D-01
                  0.1018471000D+02  0.2533111104D+00  0.7082410821D-01
                  0.4334082000D+01 -0.2881897118D+00  0.4046140897D+00
                  0.1810918000D+01 -0.7267052298D+00  0.4882324876D+00
                  0.7148410000D+00 -0.2133439088D+00  0.1751969956D+00
             SP   3 1.00       0.000000000000
                  0.2823842000D+01  0.4898545031D-01 -0.1586762981D+00
                  0.1039543000D+01  0.2592794075D+00  0.8379326898D-01
                  0.1432640000D+00 -0.1115711463D+01  0.9840546881D+00
             SP   1 1.00       0.000000000000
                  0.4929600000D-01  0.1000000000D+01  0.1000000000D+01
             S    1 1.00       0.000000000000
                  0.1620000000D+00  0.1000000000D+01
             D    3 1.00       0.000000000000
                  0.3370764000D+02  0.9262647815D-01
                  0.9061106000D+01  0.4002979920D+00
                  0.2738383000D+01  0.6896607863D+00
             D    1 1.00
                  0.2440000000D+01  0.1000000000D+01
             D    1 1.00       0.000000000000
                  0.7302940000D+00  0.1000000000D+01
             D    1 1.00       0.000000000000
                  0.1620000000D+00  0.1000000000D+01
            ****
 Initial command:
 /data2/g16/g16/l1.exe "/tmp/Gau-1908.inp" -scrdir="/tmp/"
 Entering Link 1 = /data2/g16/g16/l1.exe PID=      1909.
  
 Copyright (c) 1988-2017, Gaussian, Inc.  All Rights Reserved.
  
 This is part of the Gaussian(R) 16 program.  It is based on
 the Gaussian(R) 09 system (copyright 2009, Gaussian, Inc.),
 the Gaussian(R) 03 system (copyright 2003, Gaussian, Inc.),
 the Gaussian(R) 98 system (copyright 1998, Gaussian, Inc.),
 the Gaussian(R) 94 system (copyright 1995, Gaussian, Inc.),
 the Gaussian 92(TM) system (copyright 1992, Gaussian, Inc.),
 the Gaussian 90(TM) system (copyright 1990, Gaussian, Inc.),
 the Gaussian 88(TM) system (copyright 1988, Gaussian, Inc.),
 the Gaussian 86(TM) system (copyright 1986, Carnegie Mellon
 University), and the Gaussian 82(TM) system (copyright 1983,
 Carnegie Mellon University). Gaussian is a federally registered
 trademark of Gaussian, Inc.
  
 This software contains proprietary and confidential information,
 including trade secrets, belonging to Gaussian, Inc.
  
 This software is provided under written license and may be
 used, copied, transmitted, or stored only in accord with that
 written license.
  
 The following legend is applicable only to US Government
 contracts under FAR:
  
                    RESTRICTED RIGHTS LEGEND
  
 Use, reproduction and disclosure by the US Government is
 subject to restrictions as set forth in subparagraphs (a)
 and (c) of the Commercial Computer Software - Restricted
 Rights clause in FAR 52.227-19.
  
 Gaussian, Inc.
 340 Quinnipiac St., Bldg. 40, Wallingford CT 06492
  
  
 ---------------------------------------------------------------
 Warning -- This program may not be used in any manner that
 competes with the business of Gaussian, Inc. or will provide
 assistance to any competitor of Gaussian, Inc.  The licensee
 of this program is prohibited from giving any competitor of
 Gaussian, Inc. access to this program.  By using this program,
 the user acknowledges that Gaussian, Inc. is engaged in the
 business of creating and licensing software in the field of
 computational chemistry and represents and warrants to the
 licensee that it is not a competitor of Gaussian, Inc. and that
 it will not use this program in any manner prohibited above.
 ---------------------------------------------------------------
  

 Cite this work as:
 Gaussian 16, Revision B.01,
 M. J. Frisch, G. W. Trucks, H. B. Schlegel, G. E. Scuseria, 
 M. A. Robb, J. R. Cheeseman, G. Scalmani, V. Barone, 
 G. A. Petersson, H. Nakatsuji, X. Li, M. Caricato, A. V. Marenich, 
 J. Bloino, B. G. Janesko, R. Gomperts, B. Mennucci, H. P. Hratchian, 
 J. V. Ortiz, A. F. Izmaylov, J. L. Sonnenberg, D. Williams-Young, 
 F. Ding, F. Lipparini, F. Egidi, J. Goings, B. Peng, A. Petrone, 
 T. Henderson, D. Ranasinghe, V. G. Zakrzewski, J. Gao, N. Rega, 
 G. Zheng, W. Liang, M. Hada, M. Ehara, K. Toyota, R. Fukuda, 
 J. Hasegawa, M. Ishida, T. Nakajima, Y. Honda, O. Kitao, H. Nakai, 
 T. Vreven, K. Throssell, J. A. Montgomery, Jr., J. E. Peralta, 
 F. Ogliaro, M. J. Bearpark, J. J. Heyd, E. N. Brothers, K. N. Kudin, 
 V. N. Staroverov, T. A. Keith, R. Kobayashi, J. Normand, 
 K. Raghavachari, A. P. Rendell, J. C. Burant, S. S. Iyengar, 
 J. Tomasi, M. Cossi, J. M. Millam, M. Klene, C. Adamo, R. Cammi, 
 J. W. Ochterski, R. L. Martin, K. Morokuma, O. Farkas, 
 J. B. Foresman, and D. J. Fox, Gaussian, Inc., Wallingford CT, 2016.
 
 ******************************************
 Gaussian 16:  AM64L-G16RevB.01 20-Dec-2017
                17-Jun-2019 
 ******************************************
 %chk=MTN_PBE0_-0.23.chk
 %mem=60GB
 %nprocshared=12
 Will use up to   12 processors via shared memory.
 -----------------
 #p gen 6d pbe1pbe
 -----------------
 1/38=1,172=1/1;
 2/12=2,17=6,18=5,40=1/2;
 3/5=7,8=2,11=2,25=1,30=1,74=-13/1,2,3;
 4//1;
 5/5=2,38=5/2;
 6/7=2,8=2,9=2,10=2,28=1/1;
 99/5=1,9=1/99;
 Leave Link    1 at Mon Jun 17 21:22:37 2019, MaxMem=  8053063680 cpu:               0.0 elap:               0.1
 (Enter /data2/g16/g16/l101.exe)
 ------------------
 start preoptimized
 ------------------
 Symbolic Z-matrix:
 Charge =  0 Multiplicity = 2
 O                    -3.75768   0.20465   0.8812 
 N                    -2.60983   0.03547   0.37842 
 C                    -2.16123  -1.26783  -0.15733 
 C                    -0.88028  -0.85089  -0.81834 
 C                    -0.6054    0.44857  -0.65779 
 C                     0.60515   1.12538  -1.19899 
 S                     1.94257   1.44156   0.03329 
 C                    -1.69251   1.16543   0.11454 
 C                    -1.23634   1.76431   1.44861 
 C                    -2.4231    2.22005  -0.72091 
 C                    -3.2089   -1.80954  -1.13318 
 C                    -1.92344  -2.25706   0.98843 
 H                    -0.23953  -1.56047  -1.33511 
 H                     1.06179   0.53925  -2.00294 
 H                     0.38835   2.129    -1.58337 
 H                    -0.66872   1.03584   2.03662 
 H                    -0.60518   2.64507   1.29156 
 H                    -2.12173   2.06929   2.01742 
 H                    -3.31619   2.54594  -0.18085 
 H                    -1.78419   3.09403  -0.89127 
 H                    -2.7299    1.81137  -1.68999 
 H                    -3.36309  -1.11866  -1.96676 
 H                    -2.89118  -2.77633  -1.53368 
 H                    -4.16087  -1.93995  -0.60654 
 H                    -2.85415  -2.40171   1.54857 
 H                    -1.59698  -3.22511   0.59457 
 H                    -1.15151  -1.88475   1.6717 
 S                     2.75842  -0.53449   0.10988 
 O                     2.33623  -1.21279   1.35272 
 O                     2.50744  -1.18266  -1.20396 
 C                     4.51009  -0.16968   0.24715 
 H                     4.66035   0.44742   1.13379 
 H                     4.99861  -1.14079   0.36321 
 H                     4.8304    0.33371  -0.6664 
 
 ITRead=  0  0  0  0  0  0  0  0  0  0  0  0  0  0  0  0  0  0  0  0
 ITRead=  0  0  0  0  0  0  0  0  0  0  0  0  0  0
 MicOpt= -1 -1 -1 -1 -1 -1 -1 -1 -1 -1 -1 -1 -1 -1 -1 -1 -1 -1 -1 -1
 MicOpt= -1 -1 -1 -1 -1 -1 -1 -1 -1 -1 -1 -1 -1 -1
 NAtoms=     34 NQM=       34 NQMF=       0 NMMI=      0 NMMIF=      0
                NMic=       0 NMicF=      0.
                    Isotopes and Nuclear Properties:
 (Nuclear quadrupole moments (NQMom) in fm**2, nuclear magnetic moments (NMagM)
  in nuclear magnetons)

  Atom         1           2           3           4           5           6           7           8           9          10
 IAtWgt=          16          14          12          12          12          12          32          12          12          12
 AtmWgt=  15.9949146  14.0030740  12.0000000  12.0000000  12.0000000  12.0000000  31.9720718  12.0000000  12.0000000  12.0000000
 NucSpn=           0           2           0           0           0           0           0           0           0           0
 AtZEff=   0.0000000   0.0000000   0.0000000   0.0000000   0.0000000   0.0000000   0.0000000   0.0000000   0.0000000   0.0000000
 NQMom=    0.0000000   2.0440000   0.0000000   0.0000000   0.0000000   0.0000000   0.0000000   0.0000000   0.0000000   0.0000000
 NMagM=    0.0000000   0.4037610   0.0000000   0.0000000   0.0000000   0.0000000   0.0000000   0.0000000   0.0000000   0.0000000
 AtZNuc=   8.0000000   7.0000000   6.0000000   6.0000000   6.0000000   6.0000000  16.0000000   6.0000000   6.0000000   6.0000000

  Atom        11          12          13          14          15          16          17          18          19          20
 IAtWgt=          12          12           1           1           1           1           1           1           1           1
 AtmWgt=  12.0000000  12.0000000   1.0078250   1.0078250   1.0078250   1.0078250   1.0078250   1.0078250   1.0078250   1.0078250
 NucSpn=           0           0           1           1           1           1           1           1           1           1
 AtZEff=   0.0000000   0.0000000   0.0000000   0.0000000   0.0000000   0.0000000   0.0000000   0.0000000   0.0000000   0.0000000
 NQMom=    0.0000000   0.0000000   0.0000000   0.0000000   0.0000000   0.0000000   0.0000000   0.0000000   0.0000000   0.0000000
 NMagM=    0.0000000   0.0000000   2.7928460   2.7928460   2.7928460   2.7928460   2.7928460   2.7928460   2.7928460   2.7928460
 AtZNuc=   6.0000000   6.0000000   1.0000000   1.0000000   1.0000000   1.0000000   1.0000000   1.0000000   1.0000000   1.0000000

  Atom        21          22          23          24          25          26          27          28          29          30
 IAtWgt=           1           1           1           1           1           1           1          32          16          16
 AtmWgt=   1.0078250   1.0078250   1.0078250   1.0078250   1.0078250   1.0078250   1.0078250  31.9720718  15.9949146  15.9949146
 NucSpn=           1           1           1           1           1           1           1           0           0           0
 AtZEff=   0.0000000   0.0000000   0.0000000   0.0000000   0.0000000   0.0000000   0.0000000   0.0000000   0.0000000   0.0000000
 NQMom=    0.0000000   0.0000000   0.0000000   0.0000000   0.0000000   0.0000000   0.0000000   0.0000000   0.0000000   0.0000000
 NMagM=    2.7928460   2.7928460   2.7928460   2.7928460   2.7928460   2.7928460   2.7928460   0.0000000   0.0000000   0.0000000
 AtZNuc=   1.0000000   1.0000000   1.0000000   1.0000000   1.0000000   1.0000000   1.0000000  16.0000000   8.0000000   8.0000000

  Atom        31          32          33          34
 IAtWgt=          12           1           1           1
 AtmWgt=  12.0000000   1.0078250   1.0078250   1.0078250
 NucSpn=           0           1           1           1
 AtZEff=   0.0000000   0.0000000   0.0000000   0.0000000
 NQMom=    0.0000000   0.0000000   0.0000000   0.0000000
 NMagM=    0.0000000   2.7928460   2.7928460   2.7928460
 AtZNuc=   6.0000000   1.0000000   1.0000000   1.0000000
 Leave Link  101 at Mon Jun 17 21:22:37 2019, MaxMem=  8053063680 cpu:               0.0 elap:               0.2
 (Enter /data2/g16/g16/l202.exe)
                          Input orientation:                          
 ---------------------------------------------------------------------
 Center     Atomic      Atomic             Coordinates (Angstroms)
 Number     Number       Type             X           Y           Z
 ---------------------------------------------------------------------
      1          8           0       -3.757682    0.204649    0.881201
      2          7           0       -2.609831    0.035469    0.378421
      3          6           0       -2.161233   -1.267829   -0.157332
      4          6           0       -0.880283   -0.850892   -0.818339
      5          6           0       -0.605404    0.448574   -0.657788
      6          6           0        0.605145    1.125376   -1.198988
      7         16           0        1.942567    1.441561    0.033285
      8          6           0       -1.692506    1.165435    0.114541
      9          6           0       -1.236336    1.764310    1.448611
     10          6           0       -2.423099    2.220054   -0.720914
     11          6           0       -3.208901   -1.809544   -1.133180
     12          6           0       -1.923442   -2.257064    0.988431
     13          1           0       -0.239533   -1.560474   -1.335113
     14          1           0        1.061789    0.539249   -2.002942
     15          1           0        0.388348    2.128995   -1.583368
     16          1           0       -0.668715    1.035840    2.036619
     17          1           0       -0.605183    2.645065    1.291561
     18          1           0       -2.121728    2.069291    2.017422
     19          1           0       -3.316192    2.545935   -0.180846
     20          1           0       -1.784185    3.094030   -0.891269
     21          1           0       -2.729898    1.811368   -1.689986
     22          1           0       -3.363085   -1.118658   -1.966764
     23          1           0       -2.891184   -2.776333   -1.533676
     24          1           0       -4.160869   -1.939948   -0.606538
     25          1           0       -2.854151   -2.401714    1.548570
     26          1           0       -1.596977   -3.225113    0.594568
     27          1           0       -1.151509   -1.884750    1.671699
     28         16           0        2.758423   -0.534488    0.109876
     29          8           0        2.336232   -1.212790    1.352724
     30          8           0        2.507439   -1.182662   -1.203959
     31          6           0        4.510088   -0.169680    0.247146
     32          1           0        4.660352    0.447418    1.133787
     33          1           0        4.998613   -1.140787    0.363206
     34          1           0        4.830398    0.333714   -0.666395
 ---------------------------------------------------------------------
                    Distance matrix (angstroms):
                    1          2          3          4          5
     1  O    0.000000
     2  N    1.264504   0.000000
     3  C    2.407362   1.478803   0.000000
     4  C    3.504572   2.282369   1.500533   0.000000
     5  C    3.516368   2.293929   2.370042   1.337889   0.000000
     6  C    4.920283   3.743286   3.803331   2.501405   1.488754
     7  S    5.894213   4.777085   4.921210   3.734848   2.820596
     8  C    2.403295   1.479169   2.492869   2.365491   1.513992
     9  C    3.018556   2.453709   3.553640   3.479241   2.562451
    10  C    2.899955   2.452716   3.542813   3.438093   2.538925
    11  C    2.901011   2.459247   1.530798   2.537834   3.478978
    12  C    3.071802   2.469605   1.532287   2.515933   3.430414
    13  H    4.517198   3.331898   2.272826   1.086795   2.151489
    14  H    5.626503   4.405165   4.130336   2.665974   2.144107
    15  H    5.192954   4.149764   4.480218   3.327825   2.160568
    16  H    3.401115   2.741951   3.513961   3.428601   2.758391
    17  H    4.007777   3.415030   4.453237   4.092563   2.936756
    18  H    2.728412   2.657254   3.983401   4.255607   3.476019
    19  H    2.608539   2.667239   3.984881   4.228296   3.460458
    20  H    3.922354   3.413004   4.439216   4.047810   2.905594
    21  H    3.201389   2.728835   3.486239   3.356855   2.726924
    22  H    3.165083   2.720164   2.177325   2.748615   3.431390
    23  H    3.933027   3.411965   2.168579   2.874500   4.048703
    24  H    2.641065   2.697802   2.156867   3.463112   4.283573
    25  H    2.838112   2.714554   2.162390   3.450139   4.248414
    26  H    4.063751   3.421109   2.171336   2.854274   4.005944
    27  H    3.432581   2.736149   2.178414   2.709744   3.342027
    28  S    6.603097   5.405101   4.981185   3.768538   3.587625
    29  O    6.274333   5.193357   4.744522   3.897493   3.931350
    30  O    6.747167   5.493107   4.785309   3.425702   3.556547
    31  C    8.300492   7.124084   6.773187   5.536733   5.231577
    32  H    8.425321   7.320918   7.151439   6.016231   5.562187
    33  H    8.874188   7.698846   7.179867   6.003458   5.913840
    34  H    8.727361   7.519149   7.190757   5.834231   5.437022
                    6          7          8          9         10
     6  C    0.000000
     7  S    1.845851   0.000000
     8  C    2.646916   3.646451   0.000000
     9  C    3.287715   3.494673   1.531824   0.000000
    10  C    3.255324   4.498212   1.531004   2.514547   0.000000
    11  C    4.813007   6.202253   3.564654   4.830020   4.126149
    12  C    4.755991   5.434902   3.539847   4.105524   4.818309
    13  H    2.818830   3.955539   3.412214   4.449373   4.408809
    14  H    1.094719   2.395028   3.530154   4.323814   4.075923
    15  H    1.096358   2.345577   2.853296   3.459117   2.942168
    16  H    3.478489   3.316135   2.181588   1.094813   3.476236
    17  H    3.158668   3.085889   2.181044   1.094874   2.745088
    18  H    4.321123   4.566108   2.149917   1.095663   2.758992
    19  H    4.293191   5.377736   2.151602   2.755335   1.093383
    20  H    3.111139   4.180207   2.177048   2.746513   1.095932
    21  H    3.440084   4.993831   2.179387   3.476166   1.095559
    22  H    4.622988   6.221323   3.512797   4.949682   3.685473
    23  H    5.249730   6.603874   4.437452   5.678908   5.083657
    24  H    5.697552   7.006847   4.031895   5.147626   4.509827
    25  H    5.652979   6.330510   4.016268   4.470243   5.166924
    26  H    5.195473   5.883983   4.417744   5.074820   5.662404
    27  H    4.515256   4.829291   3.467138   3.656857   4.918430
    28  S    3.017429   2.139219   4.764507   4.799457   5.926709
    29  O    3.869744   2.990229   4.839399   4.651404   6.223795
    30  O    2.990951   2.955740   4.989142   5.453130   6.010159
    31  C    4.360855   3.038749   6.346045   6.181037   7.397097
    32  H    4.727174   3.096091   6.474042   6.050144   7.533753
    33  H    5.184448   4.014572   7.081777   6.963640   8.219025
    34  H    4.331645   3.171190   6.621926   6.582182   7.494963
                   11         12         13         14         15
    11  C    0.000000
    12  C    2.520697   0.000000
    13  H    2.986630   2.952904   0.000000
    14  H    4.950970   5.067473   2.558959   0.000000
    15  H    5.353033   5.585341   3.750739   1.776755   0.000000
    16  H    4.959474   3.676446   4.277104   4.422590   3.926408
    17  H    5.701075   5.085328   4.971888   4.250530   3.085231
    18  H    5.114059   4.451459   5.287470   5.351555   4.389731
    19  H    4.459669   5.135734   5.259350   5.149130   3.983029
    20  H    5.112081   5.673347   4.924160   3.982749   2.475923
    21  H    3.694656   4.937249   4.206801   4.011623   3.136194
    22  H    1.093599   3.478752   3.217260   4.725407   4.976695
    23  H    1.093628   2.750852   2.923866   5.180665   5.900851
    24  H    1.095719   2.765966   4.006457   5.947480   6.181090
    25  H    2.769169   1.095855   3.982404   6.049553   6.391413
    26  H    2.754496   1.094909   2.887446   5.290228   6.111579
    27  H    3.479348   1.096063   3.158761   4.927215   5.392288
    28  S    6.227352   5.065470   3.482582   2.914700   3.946957
    29  O    6.106090   4.400914   3.738973   3.994288   4.856173
    30  O    5.751046   5.059014   2.775932   2.386054   3.949882
    31  C    8.011070   6.804189   5.195840   4.178067   5.061959
    32  H    8.494596   7.119108   5.842600   4.774637   5.334852
    33  H    8.369569   7.039306   5.522554   4.890783   5.977890
    34  H    8.333173   7.420575   5.453378   4.003875   4.878082
                   16         17         18         19         20
    16  H    0.000000
    17  H    1.774473   0.000000
    18  H    1.783153   1.777160   0.000000
    19  H    3.769174   3.086645   2.546825   0.000000
    20  H    3.748726   2.521183   3.102339   1.775431   0.000000
    21  H    4.328684   3.754875   3.765803   1.777873   1.782567
    22  H    5.284749   5.691073   5.251450   4.076879   4.625619
    23  H    5.676182   6.526816   6.056602   5.507932   6.008269
    24  H    5.294972   6.104754   5.207423   4.584522   5.574104
    25  H    4.102572   5.531174   4.554794   5.261520   6.107442
    26  H    4.593136   5.994034   5.507322   6.071405   6.494176
    27  H    2.982634   4.578450   4.085987   5.267708   5.635365
    28  S    4.233621   4.777006   5.851006   6.817219   5.899468
    29  O    3.814938   4.851671   5.575597   6.959148   6.368833
    30  O    5.050847   5.528791   6.510121   6.990270   6.066787
    31  C    5.610302   5.931238   7.219962   8.295083   7.180924
    32  H    5.436939   5.707925   7.029075   8.352083   7.255168
    33  H    6.297350   6.826203   7.983751   9.111745   8.094055
    34  H    6.167618   6.222658   7.651611   8.455567   7.170957
                   21         22         23         24         25
    21  H    0.000000
    22  H    3.010413   0.000000
    23  H    4.593196   1.777116   0.000000
    24  H    4.158595   1.777974   1.780793   0.000000
    25  H    5.315425   3.776615   3.105149   2.562271   0.000000
    26  H    5.645249   3.757221   2.530968   3.109316   1.780054
    27  H    5.239611   4.326243   3.754440   3.774872   1.783649
    28  S    6.234117   6.490497   6.296443   7.096842   6.087476
    29  O    6.638470   6.596217   6.172670   6.824939   5.328412
    30  O    6.052284   5.920221   5.638584   6.737709   6.148915
    31  C    7.752060   8.233396   8.046415   8.890901   7.804338
    32  H    8.028066   8.743086   8.633286   9.302805   8.047195
    33  H    8.524125   8.680279   8.277806   9.245278   8.041202
    34  H    7.771054   8.422203   8.369432   9.274481   8.452274
                   26         27         28         29         30
    26  H    0.000000
    27  H    1.776296   0.000000
    28  S    5.142363   4.421546   0.000000
    29  O    4.482675   3.566176   1.477501   0.000000
    30  O    4.924686   4.706404   1.486366   2.562586   0.000000
    31  C    6.837588   6.084776   1.794508   2.652552   2.672535
    32  H    7.275466   6.285387   2.372734   2.864569   3.571729
    33  H    6.920965   6.331638   2.334572   2.841233   2.943418
    34  H    7.454289   6.794960   2.376858   3.562216   2.825687
                   31         32         33         34
    31  C    0.000000
    32  H    1.090652   0.000000
    33  H    1.093241   1.797390   0.000000
    34  H    1.091128   1.811767   1.806247   0.000000
 Stoichiometry    C10H18NO3S2(2)
 Framework group  C1[X(C10H18NO3S2)]
 Deg. of freedom    96
 Full point group                 C1      NOp   1
 Largest Abelian subgroup         C1      NOp   1
 Largest concise Abelian subgroup C1      NOp   1
                         Standard orientation:                         
 ---------------------------------------------------------------------
 Center     Atomic      Atomic             Coordinates (Angstroms)
 Number     Number       Type             X           Y           Z
 ---------------------------------------------------------------------
      1          8           0       -3.756004    0.197310    0.889394
      2          7           0       -2.608980    0.030085    0.384078
      3          6           0       -2.158972   -1.272705   -0.151728
      4          6           0       -0.880411   -0.853665   -0.816023
      5          6           0       -0.607809    0.446480   -0.657095
      6          6           0        0.600099    1.125333   -1.201617
      7         16           0        1.939730    1.445179    0.027308
      8          6           0       -1.694574    1.161715    0.117213
      9          6           0       -1.236531    1.762533    1.449767
     10          6           0       -2.429252    2.214207   -0.717341
     11          6           0       -3.207795   -1.817295   -1.124730
     12          6           0       -1.916507   -2.260581    0.994228
     13          1           0       -0.239418   -1.562334   -1.333746
     14          1           0        1.056070    0.539524   -2.006185
     15          1           0        0.380366    2.128215   -1.586252
     16          1           0       -0.666064    1.035669    2.037006
     17          1           0       -0.607540    2.644452    1.290585
     18          1           0       -2.121220    2.066144    2.020401
     19          1           0       -3.321751    2.538681   -0.175448
     20          1           0       -1.792517    3.089352   -0.889841
     21          1           0       -2.737465    1.804159   -1.685388
     22          1           0       -3.365321   -1.127360   -1.958477
     23          1           0       -2.889039   -2.783740   -1.525231
     24          1           0       -4.158271   -1.949236   -0.595780
     25          1           0       -2.845617   -2.406699    1.556636
     26          1           0       -1.588985   -3.228263    0.600341
     27          1           0       -1.143751   -1.886175    1.675420
     28         16           0        2.759786   -0.529146    0.103500
     29          8           0        2.341864   -1.207359    1.347838
     30          8           0        2.507076   -1.178830   -1.209258
     31          6           0        4.511018   -0.160668    0.236426
     32          1           0        4.662082    0.457410    1.122248
     33          1           0        5.001789   -1.130690    0.352086
     34          1           0        4.828181    0.342681   -0.678237
 ---------------------------------------------------------------------
 Rotational constants (GHZ):           0.7793878           0.2770529           0.2423553
 Leave Link  202 at Mon Jun 17 21:22:37 2019, MaxMem=  8053063680 cpu:               0.0 elap:               0.0
 (Enter /data2/g16/g16/l301.exe)
 General basis read from cards:  (6D, 7F)
 Centers:      13     14     15     16     17     18     19     20     21     22
 Centers:      23     24     25     26     27     32     33     34
 6-31G
 S 1 1.00 0.000000000000
     Exponent=  4.0000000000D-01 Coefficients=  1.0000000000D+00
 P 1 1.00 0.000000000000
     Exponent=  7.5000000000D-01 Coefficients=  1.0000000000D+00
 ****
 Centers:       3      4      5      6      8      9     10     11     12     31
 6-31G
 S 1 1.00 0.000000000000
     Exponent=  8.7000000000D+00 Coefficients=  1.0000000000D+00
 P 1 1.00 0.000000000000
     Exponent=  5.0000000000D-02 Coefficients=  1.0000000000D+00
 D 1 1.00
     Exponent=  8.2000000000D-01 Coefficients=  1.0000000000D+00
 ****
 Centers:       2
 6-31G
 S 1 1.00 0.000000000000
     Exponent=  1.3700000000D+01 Coefficients=  1.0000000000D+00
 P 1 1.00 0.000000000000
     Exponent=  5.3000000000D-02 Coefficients=  1.0000000000D+00
 D 1 1.00 0.000000000000
     Exponent=  1.0150000000D+00 Coefficients=  1.0000000000D+00
 ****
 Centers:       1     29     30
 6-31G
 S 1 1.00
     Exponent=  1.6000000000D+01 Coefficients=  1.0000000000D+00
 P 1 1.00 0.000000000000
     Exponent=  6.5000000000D-02 Coefficients=  1.0000000000D+00
 D 1 1.00 0.000000000000
     Exponent=  1.1900000000D+00 Coefficients=  1.0000000000D+00
 D 1 1.00 0.000000000000
     Exponent=  1.8000000000D-01 Coefficients=  1.0000000000D+00
 ****
 Centers:       7     28
 6-31G
 S 1 1.00 0.000000000000
     Exponent=  7.5000000000D+00 Coefficients=  1.0000000000D+00
 P 1 1.00 0.000000000000
     Exponent=  4.1000000000D-02 Coefficients=  1.0000000000D+00
 D 1 1.00 0.000000000000
     Exponent=  4.7900000000D-01 Coefficients=  1.0000000000D+00
 ****
 Ernie: Thresh=  0.10000D-02 Tol=  0.10000D-05 Strict=F.
 There are   438 symmetry adapted cartesian basis functions of A   symmetry.
 There are   438 symmetry adapted basis functions of A   symmetry.
   438 basis functions,   722 primitive gaussians,   438 cartesian basis functions
    71 alpha electrons       70 beta electrons
       nuclear repulsion energy      1520.8297987989 Hartrees.
 IExCor= 1009 DFT=T Ex+Corr=PBE1PBE ExCW=0 ScaHFX=  0.250000
 ScaDFX=  0.750000  0.750000  1.000000  1.000000 ScalE2=  1.000000  1.000000
 IRadAn=      5 IRanWt=     -1 IRanGd=            0 ICorTp=0 IEmpDi=  4
 NAtoms=   34 NActive=   34 NUniq=   34 SFac= 1.00D+00 NAtFMM=   60 NAOKFM=F Big=F
 Integral buffers will be    131072 words long.
 Raffenetti 2 integral format.
 Two-electron integral symmetry is turned on.
 Leave Link  301 at Mon Jun 17 21:22:38 2019, MaxMem=  8053063680 cpu:               0.0 elap:               0.2
 (Enter /data2/g16/g16/l302.exe)
 NPDir=0 NMtPBC=     1 NCelOv=     1 NCel=       1 NClECP=     1 NCelD=      1
         NCelK=      1 NCelE2=     1 NClLst=     1 CellRange=     0.0.
 One-electron integrals computed using PRISM.
 One-electron integral symmetry used in STVInt
 NBasis=   438 RedAO= T EigKep=  6.46D-05  NBF=   438
 NBsUse=   438 1.00D-06 EigRej= -1.00D+00 NBFU=   438
 Precomputing XC quadrature grid using
 IXCGrd= 4 IRadAn=           5 IRanWt=          -1 IRanGd=           0 AccXCQ= 0.00D+00.
 Generated NRdTot=       0 NPtTot=           0 NUsed=           0 NTot=          32
 NSgBfM=   433   433   433   433   433 MxSgAt=    34 MxSgA2=    34.
 Leave Link  302 at Mon Jun 17 21:22:38 2019, MaxMem=  8053063680 cpu:               0.0 elap:               0.5
 (Enter /data2/g16/g16/l303.exe)
 DipDrv:  MaxL=1.
 Leave Link  303 at Mon Jun 17 21:22:38 2019, MaxMem=  8053063680 cpu:               0.0 elap:               0.1
 (Enter /data2/g16/g16/l401.exe)
 ExpMin= 4.10D-02 ExpMax= 2.19D+04 ExpMxC= 3.30D+03 IAcc=3 IRadAn=         5 AccDes= 0.00D+00
 Harris functional with IExCor= 1009 and IRadAn=       5 diagonalized for initial guess.
 HarFok:  IExCor= 1009 AccDes= 0.00D+00 IRadAn=         5 IDoV= 1 UseB2=F ITyADJ=14
 ICtDFT=  3500011 ScaDFX=  1.000000  1.000000  1.000000  1.000000
 FoFCou: FMM=F IPFlag=           0 FMFlag=      100000 FMFlg1=           0
         NFxFlg=           0 DoJE=T BraDBF=F KetDBF=T FulRan=T
         wScrn=  0.000000 ICntrl=       500 IOpCl=  0 I1Cent=   200000004 NGrid=           0
         NMat0=    1 NMatS0=      1 NMatT0=    0 NMatD0=    1 NMtDS0=    0 NMtDT0=    0
 Petite list used in FoFCou.
 Harris En= -1467.69861889123    
 JPrj=0 DoOrth=F DoCkMO=F.
 Initial guess <Sx>= 0.0000 <Sy>= 0.0000 <Sz>= 0.5000 <S**2>= 0.7500 S= 0.5000
 Leave Link  401 at Mon Jun 17 21:22:40 2019, MaxMem=  8053063680 cpu:               0.0 elap:               1.6
 (Enter /data2/g16/g16/l502.exe)
 Integral symmetry usage will be decided dynamically.
 UHF open shell SCF:
 Using DIIS extrapolation, IDIIS=  1040.
 NGot=  8053063680 LenX=  8052670277 LenY=  8052477992
 Requested convergence on RMS density matrix=1.00D-08 within 128 cycles.
 Requested convergence on MAX density matrix=1.00D-06.
 Requested convergence on             energy=1.00D-06.
 No special actions if energy rises.
 Fock matrices will be formed incrementally for  20 cycles.

 Cycle   1  Pass 1  IDiag  1:
 FoFJK:  IHMeth= 1 ICntrl=       0 DoSepK=F KAlg= 0 I1Cent=           0 FoldK=F
 IRaf= 840000000 NMat=       1 IRICut=       1 DoRegI=T DoRafI=F ISym2E= 0 IDoP0=0 IntGTp=1.
 FoFCou: FMM=F IPFlag=           0 FMFlag=      100000 FMFlg1=           0
         NFxFlg=           0 DoJE=F BraDBF=F KetDBF=F FulRan=T
         wScrn=  0.000000 ICntrl=         0 IOpCl=  1 I1Cent=           0 NGrid=           0
         NMat0=    1 NMatS0=      1 NMatT0=    0 NMatD0=    1 NMtDS0=    0 NMtDT0=    0
 Symmetry not used in FoFCou.
 E= -1466.93550361662    
 DIIS: error= 2.53D-02 at cycle   1 NSaved=   1.
 NSaved= 1 IEnMin= 1 EnMin= -1466.93550361662     IErMin= 1 ErrMin= 2.53D-02
 ErrMax= 2.53D-02  0.00D+00 EMaxC= 1.00D-01 BMatC= 2.97D+00 BMatP= 2.97D+00
 IDIUse=3 WtCom= 7.47D-01 WtEn= 2.53D-01
 Coeff-Com:  0.100D+01
 Coeff-En:   0.100D+01
 Coeff:      0.100D+01
 Gap=     0.224 Goal=   None    Shift=    0.000
 Gap=     0.365 Goal=   None    Shift=    0.000
 GapD=    0.224 DampG=1.000 DampE=0.500 DampFc=0.5000 IDamp=-1.
 Damping current iteration by 5.00D-01
 RMSDP=4.75D-03 MaxDP=4.12D-01              OVMax= 2.96D-01

 Cycle   2  Pass 1  IDiag  1:
 RMSU=  2.37D-03    CP:  9.92D-01
 E= -1467.06161877520     Delta-E=       -0.126115158579 Rises=F Damp=T
 DIIS: error= 1.03D-02 at cycle   2 NSaved=   2.
 NSaved= 2 IEnMin= 2 EnMin= -1467.06161877520     IErMin= 2 ErrMin= 1.03D-02
 ErrMax= 1.03D-02  0.00D+00 EMaxC= 1.00D-01 BMatC= 5.24D-01 BMatP= 2.97D+00
 IDIUse=3 WtCom= 8.97D-01 WtEn= 1.03D-01
 Coeff-Com:  0.227D+00 0.773D+00
 Coeff-En:   0.396D+00 0.604D+00
 Coeff:      0.244D+00 0.756D+00
 Gap=     0.127 Goal=   None    Shift=    0.000
 Gap=     0.185 Goal=   None    Shift=    0.000
 RMSDP=1.67D-03 MaxDP=1.19D-01 DE=-1.26D-01 OVMax= 2.85D-01

 Cycle   3  Pass 1  IDiag  1:
 RMSU=  1.39D-03    CP:  9.82D-01  6.10D-01
 E= -1467.46589810826     Delta-E=       -0.404279333061 Rises=F Damp=F
 DIIS: error= 8.03D-03 at cycle   3 NSaved=   3.
 NSaved= 3 IEnMin= 3 EnMin= -1467.46589810826     IErMin= 3 ErrMin= 8.03D-03
 ErrMax= 8.03D-03  0.00D+00 EMaxC= 1.00D-01 BMatC= 3.57D-01 BMatP= 5.24D-01
 IDIUse=3 WtCom= 9.20D-01 WtEn= 8.03D-02
 Coeff-Com:  0.532D-01 0.446D+00 0.501D+00
 Coeff-En:   0.000D+00 0.000D+00 0.100D+01
 Coeff:      0.489D-01 0.410D+00 0.541D+00
 Gap=     0.144 Goal=   None    Shift=    0.000
 Gap=     0.223 Goal=   None    Shift=    0.000
 RMSDP=9.28D-04 MaxDP=6.39D-02 DE=-4.04D-01 OVMax= 1.08D-01

 Cycle   4  Pass 1  IDiag  1:
 RMSU=  6.19D-04    CP:  9.87D-01  7.32D-01  5.50D-01
 E= -1467.53891647884     Delta-E=       -0.073018370580 Rises=F Damp=F
 DIIS: error= 2.27D-03 at cycle   4 NSaved=   4.
 NSaved= 4 IEnMin= 4 EnMin= -1467.53891647884     IErMin= 4 ErrMin= 2.27D-03
 ErrMax= 2.27D-03  0.00D+00 EMaxC= 1.00D-01 BMatC= 4.13D-02 BMatP= 3.57D-01
 IDIUse=3 WtCom= 9.77D-01 WtEn= 2.27D-02
 Coeff-Com: -0.133D-01 0.697D-01 0.274D+00 0.669D+00
 Coeff-En:   0.000D+00 0.000D+00 0.847D-01 0.915D+00
 Coeff:     -0.130D-01 0.681D-01 0.270D+00 0.675D+00
 Gap=     0.144 Goal=   None    Shift=    0.000
 Gap=     0.202 Goal=   None    Shift=    0.000
 RMSDP=3.08D-04 MaxDP=1.71D-02 DE=-7.30D-02 OVMax= 3.12D-02

 Cycle   5  Pass 1  IDiag  1:
 RMSU=  2.03D-04    CP:  9.86D-01  7.22D-01  6.55D-01  7.13D-01
 E= -1467.54752624440     Delta-E=       -0.008609765556 Rises=F Damp=F
 DIIS: error= 8.82D-04 at cycle   5 NSaved=   5.
 NSaved= 5 IEnMin= 5 EnMin= -1467.54752624440     IErMin= 5 ErrMin= 8.82D-04
 ErrMax= 8.82D-04  0.00D+00 EMaxC= 1.00D-01 BMatC= 3.98D-03 BMatP= 4.13D-02
 IDIUse=3 WtCom= 9.91D-01 WtEn= 8.82D-03
 Coeff-Com: -0.953D-02 0.170D-01 0.125D+00 0.376D+00 0.492D+00
 Coeff-En:   0.000D+00 0.000D+00 0.000D+00 0.000D+00 0.100D+01
 Coeff:     -0.944D-02 0.169D-01 0.124D+00 0.373D+00 0.496D+00
 Gap=     0.144 Goal=   None    Shift=    0.000
 Gap=     0.205 Goal=   None    Shift=    0.000
 RMSDP=1.10D-04 MaxDP=5.35D-03 DE=-8.61D-03 OVMax= 1.26D-02

 Cycle   6  Pass 1  IDiag  1:
 RMSU=  6.98D-05    CP:  9.85D-01  7.25D-01  6.52D-01  7.69D-01  6.25D-01
 E= -1467.54839036711     Delta-E=       -0.000864122714 Rises=F Damp=F
 DIIS: error= 2.42D-04 at cycle   6 NSaved=   6.
 NSaved= 6 IEnMin= 6 EnMin= -1467.54839036711     IErMin= 6 ErrMin= 2.42D-04
 ErrMax= 2.42D-04  0.00D+00 EMaxC= 1.00D-01 BMatC= 4.06D-04 BMatP= 3.98D-03
 IDIUse=3 WtCom= 9.98D-01 WtEn= 2.42D-03
 Coeff-Com: -0.319D-02 0.183D-02 0.347D-01 0.118D+00 0.273D+00 0.576D+00
 Coeff-En:   0.000D+00 0.000D+00 0.000D+00 0.000D+00 0.437D-01 0.956D+00
 Coeff:     -0.318D-02 0.182D-02 0.346D-01 0.117D+00 0.272D+00 0.577D+00
 Gap=     0.146 Goal=   None    Shift=    0.000
 Gap=     0.205 Goal=   None    Shift=    0.000
 RMSDP=3.59D-05 MaxDP=2.48D-03 DE=-8.64D-04 OVMax= 5.19D-03

 Cycle   7  Pass 1  IDiag  1:
 RMSU=  2.54D-05    CP:  9.85D-01  7.21D-01  6.57D-01  7.71D-01  6.69D-01
                    CP:  6.98D-01
 E= -1467.54848430808     Delta-E=       -0.000093940972 Rises=F Damp=F
 DIIS: error= 1.16D-04 at cycle   7 NSaved=   7.
 NSaved= 7 IEnMin= 7 EnMin= -1467.54848430808     IErMin= 7 ErrMin= 1.16D-04
 ErrMax= 1.16D-04  0.00D+00 EMaxC= 1.00D-01 BMatC= 6.64D-05 BMatP= 4.06D-04
 IDIUse=3 WtCom= 9.99D-01 WtEn= 1.16D-03
 Coeff-Com: -0.650D-04-0.236D-02-0.266D-02-0.347D-04 0.597D-01 0.329D+00
 Coeff-Com:  0.617D+00
 Coeff-En:   0.000D+00 0.000D+00 0.000D+00 0.000D+00 0.000D+00 0.699D-01
 Coeff-En:   0.930D+00
 Coeff:     -0.649D-04-0.236D-02-0.265D-02-0.347D-04 0.596D-01 0.328D+00
 Coeff:      0.617D+00
 Gap=     0.146 Goal=   None    Shift=    0.000
 Gap=     0.206 Goal=   None    Shift=    0.000
 RMSDP=1.50D-05 MaxDP=9.73D-04 DE=-9.39D-05 OVMax= 1.16D-03

 Cycle   8  Pass 1  IDiag  1:
 RMSU=  1.04D-05    CP:  9.85D-01  7.22D-01  6.57D-01  7.71D-01  7.03D-01
                    CP:  7.93D-01  7.97D-01
 E= -1467.54850043589     Delta-E=       -0.000016127802 Rises=F Damp=F
 DIIS: error= 3.42D-05 at cycle   8 NSaved=   8.
 NSaved= 8 IEnMin= 8 EnMin= -1467.54850043589     IErMin= 8 ErrMin= 3.42D-05
 ErrMax= 3.42D-05  0.00D+00 EMaxC= 1.00D-01 BMatC= 4.98D-06 BMatP= 6.64D-05
 IDIUse=1 WtCom= 1.00D+00 WtEn= 0.00D+00
 Coeff-Com:  0.447D-03-0.122D-02-0.527D-02-0.147D-01-0.154D-01 0.682D-01
 Coeff-Com:  0.223D+00 0.745D+00
 Coeff:      0.447D-03-0.122D-02-0.527D-02-0.147D-01-0.154D-01 0.682D-01
 Coeff:      0.223D+00 0.745D+00
 Gap=     0.146 Goal=   None    Shift=    0.000
 Gap=     0.205 Goal=   None    Shift=    0.000
 RMSDP=5.11D-06 MaxDP=6.14D-04 DE=-1.61D-05 OVMax= 1.18D-03

 Cycle   9  Pass 1  IDiag  1:
 RMSU=  4.22D-06    CP:  9.85D-01  7.22D-01  6.57D-01  7.73D-01  7.02D-01
                    CP:  8.23D-01  8.39D-01  9.08D-01
 E= -1467.54850188363     Delta-E=       -0.000001447742 Rises=F Damp=F
 DIIS: error= 2.28D-05 at cycle   9 NSaved=   9.
 NSaved= 9 IEnMin= 9 EnMin= -1467.54850188363     IErMin= 9 ErrMin= 2.28D-05
 ErrMax= 2.28D-05  0.00D+00 EMaxC= 1.00D-01 BMatC= 3.05D-06 BMatP= 4.98D-06
 IDIUse=1 WtCom= 1.00D+00 WtEn= 0.00D+00
 Coeff-Com:  0.351D-03-0.402D-03-0.288D-02-0.982D-02-0.255D-01-0.258D-01
 Coeff-Com: -0.449D-02 0.486D+00 0.582D+00
 Coeff:      0.351D-03-0.402D-03-0.288D-02-0.982D-02-0.255D-01-0.258D-01
 Coeff:     -0.449D-02 0.486D+00 0.582D+00
 Gap=     0.146 Goal=   None    Shift=    0.000
 Gap=     0.206 Goal=   None    Shift=    0.000
 RMSDP=3.29D-06 MaxDP=2.38D-04 DE=-1.45D-06 OVMax= 2.73D-04

 Cycle  10  Pass 1  IDiag  1:
 RMSU=  2.29D-06    CP:  9.85D-01  7.22D-01  6.57D-01  7.72D-01  7.06D-01
                    CP:  8.39D-01  8.78D-01  1.05D+00  8.57D-01
 E= -1467.54850256986     Delta-E=       -0.000000686233 Rises=F Damp=F
 DIIS: error= 9.31D-06 at cycle  10 NSaved=  10.
 NSaved=10 IEnMin=10 EnMin= -1467.54850256986     IErMin=10 ErrMin= 9.31D-06
 ErrMax= 9.31D-06  0.00D+00 EMaxC= 1.00D-01 BMatC= 5.49D-07 BMatP= 3.05D-06
 IDIUse=1 WtCom= 1.00D+00 WtEn= 0.00D+00
 Coeff-Com:  0.111D-03 0.698D-04-0.168D-03-0.173D-02-0.121D-01-0.317D-01
 Coeff-Com: -0.695D-01 0.109D+00 0.348D+00 0.657D+00
 Coeff:      0.111D-03 0.698D-04-0.168D-03-0.173D-02-0.121D-01-0.317D-01
 Coeff:     -0.695D-01 0.109D+00 0.348D+00 0.657D+00
 Gap=     0.146 Goal=   None    Shift=    0.000
 Gap=     0.206 Goal=   None    Shift=    0.000
 RMSDP=1.58D-06 MaxDP=1.29D-04 DE=-6.86D-07 OVMax= 2.74D-04

 Cycle  11  Pass 1  IDiag  1:
 RMSU=  9.44D-07    CP:  9.85D-01  7.22D-01  6.57D-01  7.72D-01  7.06D-01
                    CP:  8.46D-01  8.86D-01  1.13D+00  9.86D-01  8.63D-01
 E= -1467.54850272755     Delta-E=       -0.000000157689 Rises=F Damp=F
 DIIS: error= 5.53D-06 at cycle  11 NSaved=  11.
 NSaved=11 IEnMin=11 EnMin= -1467.54850272755     IErMin=11 ErrMin= 5.53D-06
 ErrMax= 5.53D-06  0.00D+00 EMaxC= 1.00D-01 BMatC= 1.04D-07 BMatP= 5.49D-07
 IDIUse=1 WtCom= 1.00D+00 WtEn= 0.00D+00
 Coeff-Com:  0.344D-05 0.814D-04 0.431D-03 0.832D-03-0.220D-02-0.107D-01
 Coeff-Com: -0.367D-01-0.204D-01 0.689D-01 0.358D+00 0.642D+00
 Coeff:      0.344D-05 0.814D-04 0.431D-03 0.832D-03-0.220D-02-0.107D-01
 Coeff:     -0.367D-01-0.204D-01 0.689D-01 0.358D+00 0.642D+00
 Gap=     0.146 Goal=   None    Shift=    0.000
 Gap=     0.206 Goal=   None    Shift=    0.000
 RMSDP=6.16D-07 MaxDP=5.98D-05 DE=-1.58D-07 OVMax= 1.21D-04

 Cycle  12  Pass 1  IDiag  1:
 RMSU=  4.31D-07    CP:  9.85D-01  7.22D-01  6.57D-01  7.72D-01  7.05D-01
                    CP:  8.47D-01  8.83D-01  1.15D+00  1.04D+00  9.79D-01
                    CP:  8.27D-01
 E= -1467.54850275350     Delta-E=       -0.000000025943 Rises=F Damp=F
 DIIS: error= 3.24D-06 at cycle  12 NSaved=  12.
 NSaved=12 IEnMin=12 EnMin= -1467.54850275350     IErMin=12 ErrMin= 3.24D-06
 ErrMax= 3.24D-06  0.00D+00 EMaxC= 1.00D-01 BMatC= 2.69D-08 BMatP= 1.04D-07
 IDIUse=1 WtCom= 1.00D+00 WtEn= 0.00D+00
 Coeff-Com: -0.135D-04 0.289D-04 0.299D-03 0.807D-03 0.592D-03-0.135D-02
 Coeff-Com: -0.123D-01-0.341D-01-0.270D-01 0.106D+00 0.400D+00 0.566D+00
 Coeff:     -0.135D-04 0.289D-04 0.299D-03 0.807D-03 0.592D-03-0.135D-02
 Coeff:     -0.123D-01-0.341D-01-0.270D-01 0.106D+00 0.400D+00 0.566D+00
 Gap=     0.146 Goal=   None    Shift=    0.000
 Gap=     0.206 Goal=   None    Shift=    0.000
 RMSDP=3.26D-07 MaxDP=2.26D-05 DE=-2.59D-08 OVMax= 2.81D-05

 Cycle  13  Pass 1  IDiag  1:
 RMSU=  2.05D-07    CP:  9.85D-01  7.22D-01  6.57D-01  7.72D-01  7.06D-01
                    CP:  8.48D-01  8.84D-01  1.15D+00  1.06D+00  1.05D+00
                    CP:  9.48D-01  8.37D-01
 E= -1467.54850275940     Delta-E=       -0.000000005909 Rises=F Damp=F
 DIIS: error= 1.03D-06 at cycle  13 NSaved=  13.
 NSaved=13 IEnMin=13 EnMin= -1467.54850275940     IErMin=13 ErrMin= 1.03D-06
 ErrMax= 1.03D-06  0.00D+00 EMaxC= 1.00D-01 BMatC= 4.03D-09 BMatP= 2.69D-08
 IDIUse=1 WtCom= 1.00D+00 WtEn= 0.00D+00
 Coeff-Com: -0.474D-05-0.795D-05 0.580D-04 0.211D-03 0.875D-03 0.267D-02
 Coeff-Com:  0.347D-02-0.964D-02-0.335D-01-0.329D-01 0.595D-01 0.309D+00
 Coeff-Com:  0.700D+00
 Coeff:     -0.474D-05-0.795D-05 0.580D-04 0.211D-03 0.875D-03 0.267D-02
 Coeff:      0.347D-02-0.964D-02-0.335D-01-0.329D-01 0.595D-01 0.309D+00
 Coeff:      0.700D+00
 Gap=     0.146 Goal=   None    Shift=    0.000
 Gap=     0.206 Goal=   None    Shift=    0.000
 RMSDP=1.26D-07 MaxDP=1.30D-05 DE=-5.91D-09 OVMax= 2.13D-05

 Cycle  14  Pass 1  IDiag  1:
 RMSU=  1.05D-07    CP:  9.85D-01  7.22D-01  6.57D-01  7.72D-01  7.05D-01
                    CP:  8.49D-01  8.84D-01  1.15D+00  1.06D+00  1.06D+00
                    CP:  9.80D-01  8.58D-01  8.24D-01
 E= -1467.54850276064     Delta-E=       -0.000000001240 Rises=F Damp=F
 DIIS: error= 5.58D-07 at cycle  14 NSaved=  14.
 NSaved=14 IEnMin=14 EnMin= -1467.54850276064     IErMin=14 ErrMin= 5.58D-07
 ErrMax= 5.58D-07  0.00D+00 EMaxC= 1.00D-01 BMatC= 8.64D-10 BMatP= 4.03D-09
 IDIUse=1 WtCom= 1.00D+00 WtEn= 0.00D+00
 Coeff-Com:  0.273D-06-0.113D-04-0.273D-04-0.435D-04 0.332D-03 0.162D-02
 Coeff-Com:  0.398D-02 0.170D-02-0.126D-01-0.387D-01-0.528D-01 0.245D-01
 Coeff-Com:  0.375D+00 0.697D+00
 Coeff:      0.273D-06-0.113D-04-0.273D-04-0.435D-04 0.332D-03 0.162D-02
 Coeff:      0.398D-02 0.170D-02-0.126D-01-0.387D-01-0.528D-01 0.245D-01
 Coeff:      0.375D+00 0.697D+00
 Gap=     0.146 Goal=   None    Shift=    0.000
 Gap=     0.206 Goal=   None    Shift=    0.000
 RMSDP=7.21D-08 MaxDP=4.75D-06 DE=-1.24D-09 OVMax= 5.95D-06

 Cycle  15  Pass 1  IDiag  1:
 RMSU=  3.44D-08    CP:  9.85D-01  7.22D-01  6.57D-01  7.72D-01  7.05D-01
                    CP:  8.49D-01  8.84D-01  1.15D+00  1.06D+00  1.07D+00
                    CP:  1.00D+00  9.47D-01  9.46D-01  8.12D-01
 E= -1467.54850276082     Delta-E=       -0.000000000178 Rises=F Damp=F
 DIIS: error= 1.34D-07 at cycle  15 NSaved=  15.
 NSaved=15 IEnMin=15 EnMin= -1467.54850276082     IErMin=15 ErrMin= 1.34D-07
 ErrMax= 1.34D-07  0.00D+00 EMaxC= 1.00D-01 BMatC= 5.86D-11 BMatP= 8.64D-10
 IDIUse=1 WtCom= 1.00D+00 WtEn= 0.00D+00
 Coeff-Com:  0.789D-06-0.231D-05-0.196D-04-0.487D-04-0.118D-04 0.211D-03
 Coeff-Com:  0.868D-03 0.216D-02 0.358D-03-0.813D-02-0.265D-01-0.403D-01
 Coeff-Com:  0.411D-01 0.224D+00 0.807D+00
 Coeff:      0.789D-06-0.231D-05-0.196D-04-0.487D-04-0.118D-04 0.211D-03
 Coeff:      0.868D-03 0.216D-02 0.358D-03-0.813D-02-0.265D-01-0.403D-01
 Coeff:      0.411D-01 0.224D+00 0.807D+00
 Gap=     0.146 Goal=   None    Shift=    0.000
 Gap=     0.206 Goal=   None    Shift=    0.000
 RMSDP=2.06D-08 MaxDP=1.22D-06 DE=-1.78D-10 OVMax= 2.18D-06

 Cycle  16  Pass 1  IDiag  1:
 RMSU=  1.42D-08    CP:  9.85D-01  7.22D-01  6.57D-01  7.72D-01  7.05D-01
                    CP:  8.49D-01  8.84D-01  1.15D+00  1.06D+00  1.07D+00
                    CP:  1.00D+00  9.49D-01  9.94D-01  8.92D-01  9.40D-01
 E= -1467.54850276087     Delta-E=       -0.000000000051 Rises=F Damp=F
 DIIS: error= 4.82D-08 at cycle  16 NSaved=  16.
 NSaved=16 IEnMin=16 EnMin= -1467.54850276087     IErMin=16 ErrMin= 4.82D-08
 ErrMax= 4.82D-08  0.00D+00 EMaxC= 1.00D-01 BMatC= 1.17D-11 BMatP= 5.86D-11
 IDIUse=1 WtCom= 1.00D+00 WtEn= 0.00D+00
 Coeff-Com:  0.133D-06 0.101D-05-0.366D-05-0.111D-04-0.545D-04-0.156D-03
 Coeff-Com: -0.265D-03 0.599D-03 0.191D-02 0.291D-02-0.249D-02-0.199D-01
 Coeff-Com: -0.376D-01-0.235D-01 0.318D+00 0.761D+00
 Coeff:      0.133D-06 0.101D-05-0.366D-05-0.111D-04-0.545D-04-0.156D-03
 Coeff:     -0.265D-03 0.599D-03 0.191D-02 0.291D-02-0.249D-02-0.199D-01
 Coeff:     -0.376D-01-0.235D-01 0.318D+00 0.761D+00
 Gap=     0.146 Goal=   None    Shift=    0.000
 Gap=     0.206 Goal=   None    Shift=    0.000
 RMSDP=8.84D-09 MaxDP=4.97D-07 DE=-5.14D-11 OVMax= 1.32D-06

 SCF Done:  E(UPBE1PBE) =  -1467.54850276     A.U. after   16 cycles
            NFock= 16  Conv=0.88D-08     -V/T= 2.0053
 <Sx>= 0.0000 <Sy>= 0.0000 <Sz>= 0.5000 <S**2>= 0.7550 S= 0.5025
 <L.S>=  0.00000000000    
 KE= 1.459883073499D+03 PE=-6.497048294739D+03 EE= 2.048786919680D+03
 Annihilation of the first spin contaminant:
 S**2 before annihilation     0.7550,   after     0.7500
 Leave Link  502 at Mon Jun 17 21:25:17 2019, MaxMem=  8053063680 cpu:               0.0 elap:             157.2
 (Enter /data2/g16/g16/l601.exe)
 Copying SCF densities to generalized density rwf, IOpCl= 1 IROHF=0.

 **********************************************************************

            Population analysis using the SCF Density.

 **********************************************************************

 Orbital symmetries:
 Alpha Orbitals:
       Occupied  (A) (A) (A) (A) (A) (A) (A) (A) (A) (A) (A) (A)
                 (A) (A) (A) (A) (A) (A) (A) (A) (A) (A) (A) (A)
                 (A) (A) (A) (A) (A) (A) (A) (A) (A) (A) (A) (A)
                 (A) (A) (A) (A) (A) (A) (A) (A) (A) (A) (A) (A)
                 (A) (A) (A) (A) (A) (A) (A) (A) (A) (A) (A) (A)
                 (A) (A) (A) (A) (A) (A) (A) (A) (A) (A) (A)
       Virtual   (A) (A) (A) (A) (A) (A) (A) (A) (A) (A) (A) (A)
                 (A) (A) (A) (A) (A) (A) (A) (A) (A) (A) (A) (A)
                 (A) (A) (A) (A) (A) (A) (A) (A) (A) (A) (A) (A)
                 (A) (A) (A) (A) (A) (A) (A) (A) (A) (A) (A) (A)
                 (A) (A) (A) (A) (A) (A) (A) (A) (A) (A) (A) (A)
                 (A) (A) (A) (A) (A) (A) (A) (A) (A) (A) (A) (A)
                 (A) (A) (A) (A) (A) (A) (A) (A) (A) (A) (A) (A)
                 (A) (A) (A) (A) (A) (A) (A) (A) (A) (A) (A) (A)
                 (A) (A) (A) (A) (A) (A) (A) (A) (A) (A) (A) (A)
                 (A) (A) (A) (A) (A) (A) (A) (A) (A) (A) (A) (A)
                 (A) (A) (A) (A) (A) (A) (A) (A) (A) (A) (A) (A)
                 (A) (A) (A) (A) (A) (A) (A) (A) (A) (A) (A) (A)
                 (A) (A) (A) (A) (A) (A) (A) (A) (A) (A) (A) (A)
                 (A) (A) (A) (A) (A) (A) (A) (A) (A) (A) (A) (A)
                 (A) (A) (A) (A) (A) (A) (A) (A) (A) (A) (A) (A)
                 (A) (A) (A) (A) (A) (A) (A) (A) (A) (A) (A) (A)
                 (A) (A) (A) (A) (A) (A) (A) (A) (A) (A) (A) (A)
                 (A) (A) (A) (A) (A) (A) (A) (A) (A) (A) (A) (A)
                 (A) (A) (A) (A) (A) (A) (A) (A) (A) (A) (A) (A)
                 (A) (A) (A) (A) (A) (A) (A) (A) (A) (A) (A) (A)
                 (A) (A) (A) (A) (A) (A) (A) (A) (A) (A) (A) (A)
                 (A) (A) (A) (A) (A) (A) (A) (A) (A) (A) (A) (A)
                 (A) (A) (A) (A) (A) (A) (A) (A) (A) (A) (A) (A)
                 (A) (A) (A) (A) (A) (A) (A) (A) (A) (A) (A) (A)
                 (A) (A) (A) (A) (A) (A) (A) (A) (A) (A) (A) (A)
                 (A) (A) (A) (A) (A) (A) (A) (A) (A) (A) (A) (A)
                 (A) (A) (A) (A) (A) (A) (A) (A) (A) (A) (A) (A)
                 (A) (A) (A) (A) (A) (A) (A) (A) (A) (A) (A) (A)
                 (A) (A) (A) (A) (A) (A) (A) (A) (A) (A) (A) (A)
                 (A) (A) (A) (A) (A) (A) (A) (A) (A) (A) (A) (A)
                 (A) (A) (A) (A) (A) (A) (A)
 Beta  Orbitals:
       Occupied  (A) (A) (A) (A) (A) (A) (A) (A) (A) (A) (A) (A)
                 (A) (A) (A) (A) (A) (A) (A) (A) (A) (A) (A) (A)
                 (A) (A) (A) (A) (A) (A) (A) (A) (A) (A) (A) (A)
                 (A) (A) (A) (A) (A) (A) (A) (A) (A) (A) (A) (A)
                 (A) (A) (A) (A) (A) (A) (A) (A) (A) (A) (A) (A)
                 (A) (A) (A) (A) (A) (A) (A) (A) (A) (A)
       Virtual   (A) (A) (A) (A) (A) (A) (A) (A) (A) (A) (A) (A)
                 (A) (A) (A) (A) (A) (A) (A) (A) (A) (A) (A) (A)
                 (A) (A) (A) (A) (A) (A) (A) (A) (A) (A) (A) (A)
                 (A) (A) (A) (A) (A) (A) (A) (A) (A) (A) (A) (A)
                 (A) (A) (A) (A) (A) (A) (A) (A) (A) (A) (A) (A)
                 (A) (A) (A) (A) (A) (A) (A) (A) (A) (A) (A) (A)
                 (A) (A) (A) (A) (A) (A) (A) (A) (A) (A) (A) (A)
                 (A) (A) (A) (A) (A) (A) (A) (A) (A) (A) (A) (A)
                 (A) (A) (A) (A) (A) (A) (A) (A) (A) (A) (A) (A)
                 (A) (A) (A) (A) (A) (A) (A) (A) (A) (A) (A) (A)
                 (A) (A) (A) (A) (A) (A) (A) (A) (A) (A) (A) (A)
                 (A) (A) (A) (A) (A) (A) (A) (A) (A) (A) (A) (A)
                 (A) (A) (A) (A) (A) (A) (A) (A) (A) (A) (A) (A)
                 (A) (A) (A) (A) (A) (A) (A) (A) (A) (A) (A) (A)
                 (A) (A) (A) (A) (A) (A) (A) (A) (A) (A) (A) (A)
                 (A) (A) (A) (A) (A) (A) (A) (A) (A) (A) (A) (A)
                 (A) (A) (A) (A) (A) (A) (A) (A) (A) (A) (A) (A)
                 (A) (A) (A) (A) (A) (A) (A) (A) (A) (A) (A) (A)
                 (A) (A) (A) (A) (A) (A) (A) (A) (A) (A) (A) (A)
                 (A) (A) (A) (A) (A) (A) (A) (A) (A) (A) (A) (A)
                 (A) (A) (A) (A) (A) (A) (A) (A) (A) (A) (A) (A)
                 (A) (A) (A) (A) (A) (A) (A) (A) (A) (A) (A) (A)
                 (A) (A) (A) (A) (A) (A) (A) (A) (A) (A) (A) (A)
                 (A) (A) (A) (A) (A) (A) (A) (A) (A) (A) (A) (A)
                 (A) (A) (A) (A) (A) (A) (A) (A) (A) (A) (A) (A)
                 (A) (A) (A) (A) (A) (A) (A) (A) (A) (A) (A) (A)
                 (A) (A) (A) (A) (A) (A) (A) (A) (A) (A) (A) (A)
                 (A) (A) (A) (A) (A) (A) (A) (A) (A) (A) (A) (A)
                 (A) (A) (A) (A) (A) (A) (A) (A) (A) (A) (A) (A)
                 (A) (A) (A) (A) (A) (A) (A) (A) (A) (A) (A) (A)
                 (A) (A) (A) (A) (A) (A) (A) (A)
 The electronic state is 2-A.
 Alpha  occ. eigenvalues --  -89.28821 -89.08212 -19.24730 -19.24258 -19.22612
 Alpha  occ. eigenvalues --  -14.48508 -10.29829 -10.29716 -10.29141 -10.28732
 Alpha  occ. eigenvalues --  -10.26171 -10.24905 -10.23182 -10.22732 -10.22656
 Alpha  occ. eigenvalues --  -10.22452  -8.22136  -8.04455  -6.15858  -6.15817
 Alpha  occ. eigenvalues --   -6.15701  -5.98297  -5.97917  -5.97196  -1.14668
 Alpha  occ. eigenvalues --   -1.13593  -1.04433  -0.93303  -0.85922  -0.84049
 Alpha  occ. eigenvalues --   -0.82278  -0.77267  -0.74914  -0.72051  -0.71218
 Alpha  occ. eigenvalues --   -0.70620  -0.64493  -0.62471  -0.59027  -0.56410
 Alpha  occ. eigenvalues --   -0.53123  -0.51822  -0.51303  -0.50768  -0.50231
 Alpha  occ. eigenvalues --   -0.48489  -0.47421  -0.46377  -0.46168  -0.45206
 Alpha  occ. eigenvalues --   -0.44657  -0.44022  -0.42720  -0.42398  -0.41632
 Alpha  occ. eigenvalues --   -0.40526  -0.40047  -0.39160  -0.38905  -0.36482
 Alpha  occ. eigenvalues --   -0.36398  -0.36131  -0.35735  -0.35646  -0.34598
 Alpha  occ. eigenvalues --   -0.33581  -0.31772  -0.28359  -0.27193  -0.26926
 Alpha  occ. eigenvalues --   -0.20068
 Alpha virt. eigenvalues --   -0.05431  -0.02500   0.00434   0.01050   0.02615
 Alpha virt. eigenvalues --    0.03427   0.03743   0.04539   0.04783   0.05004
 Alpha virt. eigenvalues --    0.05451   0.05831   0.06167   0.06281   0.06849
 Alpha virt. eigenvalues --    0.07845   0.08236   0.08326   0.09010   0.09243
 Alpha virt. eigenvalues --    0.09398   0.09735   0.10277   0.10837   0.10965
 Alpha virt. eigenvalues --    0.11367   0.11877   0.12575   0.13005   0.13686
 Alpha virt. eigenvalues --    0.14032   0.14329   0.14805   0.15131   0.15459
 Alpha virt. eigenvalues --    0.16010   0.16528   0.16587   0.17111   0.17646
 Alpha virt. eigenvalues --    0.18511   0.18751   0.19259   0.19487   0.19683
 Alpha virt. eigenvalues --    0.20037   0.20918   0.21325   0.21863   0.22431
 Alpha virt. eigenvalues --    0.23153   0.23482   0.24200   0.24343   0.25211
 Alpha virt. eigenvalues --    0.25944   0.26299   0.26594   0.27154   0.27631
 Alpha virt. eigenvalues --    0.28033   0.28580   0.28881   0.29349   0.29680
 Alpha virt. eigenvalues --    0.30277   0.30618   0.31411   0.31501   0.32012
 Alpha virt. eigenvalues --    0.32644   0.32945   0.33724   0.34296   0.34984
 Alpha virt. eigenvalues --    0.35615   0.36793   0.37799   0.37906   0.40592
 Alpha virt. eigenvalues --    0.41591   0.42125   0.42254   0.42978   0.44512
 Alpha virt. eigenvalues --    0.46191   0.47298   0.47573   0.48111   0.49952
 Alpha virt. eigenvalues --    0.50603   0.51186   0.51821   0.52093   0.52301
 Alpha virt. eigenvalues --    0.52972   0.53742   0.54367   0.55454   0.56172
 Alpha virt. eigenvalues --    0.56906   0.57467   0.58336   0.59833   0.60293
 Alpha virt. eigenvalues --    0.60575   0.61788   0.62532   0.63275   0.63948
 Alpha virt. eigenvalues --    0.64494   0.65011   0.65511   0.65685   0.66745
 Alpha virt. eigenvalues --    0.68111   0.68358   0.68575   0.70073   0.71005
 Alpha virt. eigenvalues --    0.72104   0.72652   0.72981   0.73343   0.74186
 Alpha virt. eigenvalues --    0.74906   0.75743   0.76468   0.77485   0.78536
 Alpha virt. eigenvalues --    0.78982   0.79649   0.80649   0.81814   0.82329
 Alpha virt. eigenvalues --    0.82825   0.83286   0.83897   0.84748   0.85511
 Alpha virt. eigenvalues --    0.86009   0.86980   0.88043   0.88670   0.88766
 Alpha virt. eigenvalues --    0.89066   0.89719   0.90347   0.91087   0.91792
 Alpha virt. eigenvalues --    0.92086   0.92870   0.94362   0.95024   0.95157
 Alpha virt. eigenvalues --    0.95905   0.97725   0.97796   0.98267   0.99134
 Alpha virt. eigenvalues --    1.00100   1.01547   1.02166   1.03366   1.04130
 Alpha virt. eigenvalues --    1.04851   1.07431   1.08596   1.09073   1.11371
 Alpha virt. eigenvalues --    1.12511   1.14333   1.14996   1.15809   1.17175
 Alpha virt. eigenvalues --    1.18599   1.20235   1.22179   1.22385   1.23608
 Alpha virt. eigenvalues --    1.25670   1.28756   1.30120   1.30687   1.32175
 Alpha virt. eigenvalues --    1.36118   1.37933   1.39546   1.40121   1.41376
 Alpha virt. eigenvalues --    1.44305   1.45206   1.45835   1.48008   1.48881
 Alpha virt. eigenvalues --    1.49936   1.50150   1.50748   1.52881   1.56029
 Alpha virt. eigenvalues --    1.57270   1.59370   1.62689   1.63085   1.63390
 Alpha virt. eigenvalues --    1.65450   1.65737   1.66673   1.68116   1.68530
 Alpha virt. eigenvalues --    1.69111   1.71481   1.72239   1.73121   1.74537
 Alpha virt. eigenvalues --    1.75268   1.76475   1.77885   1.78904   1.79414
 Alpha virt. eigenvalues --    1.79663   1.80122   1.80755   1.82129   1.82565
 Alpha virt. eigenvalues --    1.84010   1.85051   1.85363   1.86272   1.86425
 Alpha virt. eigenvalues --    1.87729   1.89458   1.92098   1.92373   1.93866
 Alpha virt. eigenvalues --    1.95151   1.95928   1.97930   1.98295   1.99372
 Alpha virt. eigenvalues --    1.99824   2.01636   2.03203   2.03933   2.05572
 Alpha virt. eigenvalues --    2.06582   2.07344   2.10193   2.11772   2.13541
 Alpha virt. eigenvalues --    2.14680   2.16167   2.16954   2.24834   2.25632
 Alpha virt. eigenvalues --    2.28028   2.28272   2.30892   2.33144   2.34457
 Alpha virt. eigenvalues --    2.36433   2.38736   2.39427   2.40256   2.40992
 Alpha virt. eigenvalues --    2.43064   2.44733   2.47208   2.48721   2.49619
 Alpha virt. eigenvalues --    2.53806   2.54366   2.55033   2.58043   2.58605
 Alpha virt. eigenvalues --    2.60654   2.63710   2.65225   2.66114   2.67540
 Alpha virt. eigenvalues --    2.70644   2.75596   2.75821   2.76879   2.80388
 Alpha virt. eigenvalues --    2.82527   2.82684   2.83154   2.83187   2.84132
 Alpha virt. eigenvalues --    2.84250   2.85305   2.86337   2.87012   2.87738
 Alpha virt. eigenvalues --    2.88273   2.89652   2.91240   2.93012   2.93591
 Alpha virt. eigenvalues --    2.94403   2.95680   2.96785   2.98005   2.98438
 Alpha virt. eigenvalues --    2.99266   3.02951   3.03655   3.03976   3.06517
 Alpha virt. eigenvalues --    3.08165   3.15638   3.18174   3.19436   3.20521
 Alpha virt. eigenvalues --    3.26185   3.28180   3.29513   3.31131   3.31797
 Alpha virt. eigenvalues --    3.34584   3.35605   3.37176   3.38445   3.40956
 Alpha virt. eigenvalues --    3.42183   3.43568   3.44893   3.47822   3.50150
 Alpha virt. eigenvalues --    3.53522   3.56973   3.60091   3.63502   3.64839
 Alpha virt. eigenvalues --    3.76810   3.94443   4.47085   4.57028   4.62138
 Alpha virt. eigenvalues --    4.64149   4.72293   4.73871   4.74614   4.86615
 Alpha virt. eigenvalues --    4.91304   5.03106   5.44620   5.81689   5.84368
 Alpha virt. eigenvalues --    6.08148  22.21314  22.63232  58.49132  58.49227
 Alpha virt. eigenvalues --   58.50359  58.50623  58.50860  58.55727  58.56180
 Alpha virt. eigenvalues --   58.56240  58.56502  58.56770  95.61935 106.32204
 Alpha virt. eigenvalues --  106.33232 106.39164
  Beta  occ. eigenvalues --  -89.28821 -89.08212 -19.24730 -19.24258 -19.21184
  Beta  occ. eigenvalues --  -14.47313 -10.29831 -10.29716 -10.29208 -10.28798
  Beta  occ. eigenvalues --  -10.26170 -10.24902 -10.23133 -10.22681 -10.22610
  Beta  occ. eigenvalues --  -10.22397  -8.22136  -8.04455  -6.15858  -6.15817
  Beta  occ. eigenvalues --   -6.15701  -5.98297  -5.97916  -5.97196  -1.14668
  Beta  occ. eigenvalues --   -1.10959  -1.04433  -0.92358  -0.85731  -0.83947
  Beta  occ. eigenvalues --   -0.82142  -0.77070  -0.73847  -0.71810  -0.71091
  Beta  occ. eigenvalues --   -0.70150  -0.64440  -0.62342  -0.58649  -0.55897
  Beta  occ. eigenvalues --   -0.53036  -0.51814  -0.51023  -0.50420  -0.48390
  Beta  occ. eigenvalues --   -0.47508  -0.47167  -0.46368  -0.46100  -0.44957
  Beta  occ. eigenvalues --   -0.44308  -0.43888  -0.42503  -0.41596  -0.41138
  Beta  occ. eigenvalues --   -0.40215  -0.40013  -0.38810  -0.37657  -0.36345
  Beta  occ. eigenvalues --   -0.36092  -0.35703  -0.35653  -0.34570  -0.33580
  Beta  occ. eigenvalues --   -0.32767  -0.31769  -0.28268  -0.26743  -0.25999
  Beta virt. eigenvalues --   -0.05432  -0.03721  -0.02453   0.00445   0.01055
  Beta virt. eigenvalues --    0.02636   0.03448   0.03782   0.04574   0.04872
  Beta virt. eigenvalues --    0.05038   0.05478   0.05876   0.06196   0.06311
  Beta virt. eigenvalues --    0.06921   0.07863   0.08277   0.08437   0.09040
  Beta virt. eigenvalues --    0.09336   0.09434   0.09810   0.10326   0.10899
  Beta virt. eigenvalues --    0.10978   0.11406   0.11971   0.12682   0.13097
  Beta virt. eigenvalues --    0.13742   0.14082   0.14379   0.14927   0.15229
  Beta virt. eigenvalues --    0.15700   0.16096   0.16593   0.16909   0.17287
  Beta virt. eigenvalues --    0.17755   0.18553   0.18898   0.19334   0.19766
  Beta virt. eigenvalues --    0.19807   0.20214   0.21015   0.21454   0.21956
  Beta virt. eigenvalues --    0.22531   0.23326   0.23528   0.24332   0.24717
  Beta virt. eigenvalues --    0.25392   0.26102   0.26377   0.26675   0.27199
  Beta virt. eigenvalues --    0.27695   0.28110   0.28737   0.29070   0.29421
  Beta virt. eigenvalues --    0.30056   0.30562   0.30740   0.31539   0.31855
  Beta virt. eigenvalues --    0.32091   0.32788   0.33183   0.33935   0.34358
  Beta virt. eigenvalues --    0.35073   0.35808   0.36824   0.37879   0.37988
  Beta virt. eigenvalues --    0.40621   0.41634   0.42206   0.42663   0.43099
  Beta virt. eigenvalues --    0.44681   0.46248   0.47383   0.47611   0.48168
  Beta virt. eigenvalues --    0.50127   0.50657   0.51398   0.51917   0.52221
  Beta virt. eigenvalues --    0.52366   0.53016   0.53962   0.54398   0.55511
  Beta virt. eigenvalues --    0.56257   0.56970   0.57541   0.58466   0.59994
  Beta virt. eigenvalues --    0.60408   0.60712   0.61839   0.62575   0.63451
  Beta virt. eigenvalues --    0.64019   0.64567   0.65090   0.65634   0.65961
  Beta virt. eigenvalues --    0.66821   0.68185   0.68555   0.68746   0.70277
  Beta virt. eigenvalues --    0.71269   0.72221   0.72758   0.73041   0.73425
  Beta virt. eigenvalues --    0.74389   0.74935   0.75872   0.76538   0.77527
  Beta virt. eigenvalues --    0.78764   0.79021   0.79868   0.80748   0.82014
  Beta virt. eigenvalues --    0.82454   0.82869   0.83350   0.84006   0.84831
  Beta virt. eigenvalues --    0.85558   0.86128   0.87084   0.88068   0.88739
  Beta virt. eigenvalues --    0.88807   0.89107   0.89771   0.90414   0.91152
  Beta virt. eigenvalues --    0.91866   0.92208   0.93148   0.94492   0.95113
  Beta virt. eigenvalues --    0.95240   0.96098   0.97781   0.98118   0.98955
  Beta virt. eigenvalues --    0.99571   1.00395   1.01846   1.02200   1.03468
  Beta virt. eigenvalues --    1.04236   1.04976   1.07489   1.08656   1.09417
  Beta virt. eigenvalues --    1.11700   1.12537   1.14399   1.15069   1.15925
  Beta virt. eigenvalues --    1.17419   1.18845   1.20694   1.22550   1.23076
  Beta virt. eigenvalues --    1.24318   1.26116   1.29161   1.30435   1.31690
  Beta virt. eigenvalues --    1.32426   1.36527   1.38221   1.39592   1.40183
  Beta virt. eigenvalues --    1.41461   1.44331   1.45405   1.46123   1.48322
  Beta virt. eigenvalues --    1.48933   1.50014   1.50197   1.50808   1.52920
  Beta virt. eigenvalues --    1.56212   1.57342   1.59495   1.62704   1.63105
  Beta virt. eigenvalues --    1.63404   1.65830   1.65941   1.67154   1.68227
  Beta virt. eigenvalues --    1.68552   1.69462   1.71591   1.72323   1.73224
  Beta virt. eigenvalues --    1.74611   1.75331   1.76554   1.77971   1.78958
  Beta virt. eigenvalues --    1.79462   1.79742   1.80206   1.80779   1.82202
  Beta virt. eigenvalues --    1.82690   1.84125   1.85093   1.85471   1.86432
  Beta virt. eigenvalues --    1.86538   1.87889   1.89560   1.92430   1.92562
  Beta virt. eigenvalues --    1.93914   1.95160   1.95945   1.98038   1.98470
  Beta virt. eigenvalues --    1.99701   2.00055   2.02011   2.03510   2.04102
  Beta virt. eigenvalues --    2.06161   2.06911   2.07548   2.10478   2.12430
  Beta virt. eigenvalues --    2.13642   2.14922   2.16215   2.17376   2.25523
  Beta virt. eigenvalues --    2.25935   2.28153   2.29415   2.30966   2.33216
  Beta virt. eigenvalues --    2.34616   2.36528   2.38739   2.39429   2.40377
  Beta virt. eigenvalues --    2.41374   2.43326   2.44830   2.47370   2.49248
  Beta virt. eigenvalues --    2.49748   2.53902   2.55213   2.55671   2.58476
  Beta virt. eigenvalues --    2.58735   2.60700   2.63761   2.65353   2.66166
  Beta virt. eigenvalues --    2.68463   2.70834   2.75710   2.76095   2.77177
  Beta virt. eigenvalues --    2.80587   2.82544   2.82732   2.83195   2.84023
  Beta virt. eigenvalues --    2.84196   2.85324   2.85976   2.86927   2.87040
  Beta virt. eigenvalues --    2.87929   2.89464   2.89876   2.91514   2.93069
  Beta virt. eigenvalues --    2.94533   2.94990   2.96279   2.96955   2.98160
  Beta virt. eigenvalues --    2.98503   2.99765   3.03140   3.04130   3.04496
  Beta virt. eigenvalues --    3.06616   3.08275   3.15968   3.19113   3.19599
  Beta virt. eigenvalues --    3.24153   3.26194   3.28183   3.29825   3.31167
  Beta virt. eigenvalues --    3.31908   3.34626   3.35615   3.37224   3.38470
  Beta virt. eigenvalues --    3.41029   3.42240   3.43723   3.44941   3.47922
  Beta virt. eigenvalues --    3.50292   3.53699   3.56999   3.60138   3.63609
  Beta virt. eigenvalues --    3.64865   3.76831   3.96145   4.47156   4.57088
  Beta virt. eigenvalues --    4.62138   4.64268   4.72370   4.73974   4.74717
  Beta virt. eigenvalues --    4.86742   4.91343   5.03108   5.46514   5.81702
  Beta virt. eigenvalues --    5.84370   6.10646  22.21315  22.63232  58.49130
  Beta virt. eigenvalues --   58.49227  58.50343  58.50583  58.50804  58.55770
  Beta virt. eigenvalues --   58.56226  58.56283  58.56550  58.56772  95.62868
  Beta virt. eigenvalues --  106.32206 106.33232 106.40301
          Condensed to atoms (all electrons):
               1          2          3          4          5          6
     1  O    8.670586  -0.018366  -0.089275  -0.001865   0.038435  -0.003626
     2  N   -0.018366   7.375623   0.082107  -0.058523  -0.022447   0.016328
     3  C   -0.089275   0.082107   5.448410   0.244835  -0.111076   0.018486
     4  C   -0.001865  -0.058523   0.244835   5.177088   0.614477  -0.031592
     5  C    0.038435  -0.022447  -0.111076   0.614477   5.422301   0.192331
     6  C   -0.003626   0.016328   0.018486  -0.031592   0.192331   5.225241
     7  S   -0.000781   0.005313   0.000042  -0.002819  -0.132693   0.258926
     8  C   -0.072168   0.054112  -0.137866  -0.065478   0.204206  -0.076682
     9  C   -0.010665  -0.090087   0.006798  -0.002344  -0.069881   0.010026
    10  C   -0.010697  -0.086564   0.018016  -0.011067  -0.073682   0.004364
    11  C   -0.007137  -0.106339   0.306773  -0.042673  -0.005492  -0.002631
    12  C   -0.001451  -0.090597   0.312285  -0.075546  -0.007530  -0.001462
    13  H   -0.000588   0.002725  -0.035252   0.405611  -0.049140  -0.001741
    14  H    0.000069  -0.002510   0.003585   0.024091  -0.084070   0.420370
    15  H    0.000108  -0.002577  -0.000329   0.004857  -0.063117   0.407649
    16  H   -0.001110   0.017843  -0.003012   0.003128  -0.001226  -0.000479
    17  H   -0.000678   0.005557  -0.000400   0.001148  -0.005604   0.002290
    18  H    0.007524  -0.022252   0.001243  -0.000914   0.008336  -0.001027
    19  H    0.008206  -0.027535  -0.001360  -0.001518   0.020447  -0.001453
    20  H   -0.000429   0.005488  -0.000717   0.001406  -0.004055   0.002596
    21  H   -0.000647   0.004113   0.000787   0.001057   0.000176   0.003005
    22  H   -0.000416   0.001872  -0.057493  -0.000332   0.008556  -0.000731
    23  H   -0.000395   0.005837  -0.047575   0.002767   0.001146  -0.000043
    24  H    0.006552  -0.024623  -0.032282   0.014921  -0.002577   0.000091
    25  H    0.008051  -0.029245  -0.027670   0.016100  -0.001022   0.000024
    26  H   -0.000896   0.010737  -0.048495  -0.001662  -0.000189  -0.000020
    27  H   -0.000549   0.013967  -0.061891  -0.005211   0.004346  -0.000605
    28  S   -0.000009  -0.002288   0.000736  -0.030506  -0.008258  -0.004002
    29  O    0.000028   0.006381  -0.005303   0.028485   0.012947   0.005094
    30  O    0.000103  -0.000133  -0.007415   0.025238   0.022041  -0.023988
    31  C    0.000002   0.000223  -0.000743   0.002788   0.004887  -0.000418
    32  H    0.000000  -0.000010   0.000031  -0.000096  -0.000504   0.000212
    33  H   -0.000000   0.000006   0.000013  -0.000026   0.000136   0.000181
    34  H    0.000000  -0.000003  -0.000020  -0.000440  -0.000023  -0.000401
               7          8          9         10         11         12
     1  O   -0.000781  -0.072168  -0.010665  -0.010697  -0.007137  -0.001451
     2  N    0.005313   0.054112  -0.090087  -0.086564  -0.106339  -0.090597
     3  C    0.000042  -0.137866   0.006798   0.018016   0.306773   0.312285
     4  C   -0.002819  -0.065478  -0.002344  -0.011067  -0.042673  -0.075546
     5  C   -0.132693   0.204206  -0.069881  -0.073682  -0.005492  -0.007530
     6  C    0.258926  -0.076682   0.010026   0.004364  -0.002631  -0.001462
     7  S   15.873434  -0.002139   0.002641  -0.000674  -0.000217   0.000955
     8  C   -0.002139   5.447510   0.326516   0.322045   0.014854   0.021861
     9  C    0.002641   0.326516   5.012217  -0.085129  -0.005266   0.004921
    10  C   -0.000674   0.322045  -0.085129   5.032638   0.005220  -0.006259
    11  C   -0.000217   0.014854  -0.005266   0.005220   5.030408  -0.080909
    12  C    0.000955   0.021861   0.004921  -0.006259  -0.080909   5.024118
    13  H    0.000010   0.012763  -0.000908  -0.001554  -0.001005   0.003144
    14  H   -0.041785   0.003040  -0.000011  -0.001844  -0.000193  -0.000046
    15  H   -0.042173   0.007958  -0.001064   0.005865   0.000304  -0.000060
    16  H    0.000583  -0.065423   0.412762   0.009209   0.000143  -0.001304
    17  H    0.000927  -0.033610   0.398921  -0.004222   0.000164  -0.000168
    18  H    0.000223  -0.035208   0.411547  -0.004186   0.000014  -0.000256
    19  H    0.000095  -0.040647  -0.002411   0.416582  -0.000124   0.000037
    20  H   -0.000395  -0.038613  -0.003761   0.401875  -0.000064   0.000137
    21  H   -0.000954  -0.056582   0.008448   0.409602  -0.001061  -0.000044
    22  H    0.000001  -0.002428   0.000095  -0.001287   0.412017   0.008599
    23  H    0.000004  -0.001028   0.000128  -0.000061   0.406567  -0.002483
    24  H   -0.000014   0.000940  -0.000109  -0.000104   0.412229  -0.003852
    25  H   -0.000048  -0.002880  -0.000155   0.000074  -0.004266   0.409176
    26  H   -0.000004  -0.001033  -0.000148   0.000204  -0.002498   0.406102
    27  H   -0.000011   0.000125  -0.001308   0.000072   0.009064   0.412067
    28  S    0.310489   0.004462  -0.003771  -0.000179  -0.000716   0.002316
    29  O   -0.074622  -0.009440  -0.000599   0.000148   0.000253  -0.007060
    30  O   -0.082548  -0.004450   0.000748   0.000024   0.001017   0.000668
    31  C   -0.052722  -0.001277   0.000262   0.000051   0.000051  -0.000215
    32  H   -0.000806   0.000151  -0.000074  -0.000002  -0.000000  -0.000008
    33  H    0.001561  -0.000040  -0.000001   0.000001  -0.000000  -0.000006
    34  H    0.002425   0.000122   0.000002  -0.000001  -0.000000   0.000010
              13         14         15         16         17         18
     1  O   -0.000588   0.000069   0.000108  -0.001110  -0.000678   0.007524
     2  N    0.002725  -0.002510  -0.002577   0.017843   0.005557  -0.022252
     3  C   -0.035252   0.003585  -0.000329  -0.003012  -0.000400   0.001243
     4  C    0.405611   0.024091   0.004857   0.003128   0.001148  -0.000914
     5  C   -0.049140  -0.084070  -0.063117  -0.001226  -0.005604   0.008336
     6  C   -0.001741   0.420370   0.407649  -0.000479   0.002290  -0.001027
     7  S    0.000010  -0.041785  -0.042173   0.000583   0.000927   0.000223
     8  C    0.012763   0.003040   0.007958  -0.065423  -0.033610  -0.035208
     9  C   -0.000908  -0.000011  -0.001064   0.412762   0.398921   0.411547
    10  C   -0.001554  -0.001844   0.005865   0.009209  -0.004222  -0.004186
    11  C   -0.001005  -0.000193   0.000304   0.000143   0.000164   0.000014
    12  C    0.003144  -0.000046  -0.000060  -0.001304  -0.000168  -0.000256
    13  H    0.508796   0.002248  -0.000016  -0.000031  -0.000001   0.000004
    14  H    0.002248   0.490399  -0.014273  -0.000040  -0.000016   0.000001
    15  H   -0.000016  -0.014273   0.530560   0.000092  -0.000052   0.000013
    16  H   -0.000031  -0.000040   0.000092   0.537160  -0.019827  -0.015382
    17  H   -0.000001  -0.000016  -0.000052  -0.019827   0.566171  -0.020835
    18  H    0.000004   0.000001   0.000013  -0.015382  -0.020835   0.528186
    19  H    0.000005   0.000004  -0.000034  -0.000013  -0.000259   0.001897
    20  H    0.000002   0.000014  -0.000133   0.000082   0.001220  -0.000160
    21  H   -0.000019   0.000001  -0.000194  -0.000139   0.000085   0.000036
    22  H    0.000152   0.000004   0.000001  -0.000001  -0.000000  -0.000000
    23  H    0.000579   0.000001   0.000000   0.000000  -0.000000   0.000000
    24  H    0.000003   0.000000  -0.000000  -0.000000   0.000000  -0.000002
    25  H   -0.000032  -0.000000   0.000000   0.000005   0.000000  -0.000007
    26  H    0.000113  -0.000001   0.000000   0.000008  -0.000000  -0.000000
    27  H   -0.000179  -0.000002   0.000000   0.000241   0.000009  -0.000001
    28  S    0.003051  -0.013380   0.003076  -0.000947  -0.000917   0.000353
    29  O   -0.000331   0.000957  -0.000800  -0.000026   0.000164   0.000005
    30  O   -0.000850   0.011329  -0.001303   0.000081   0.000025  -0.000010
    31  C   -0.000100   0.000425  -0.000075   0.000034   0.000047  -0.000002
    32  H    0.000000   0.000005  -0.000000  -0.000000  -0.000000   0.000000
    33  H    0.000000  -0.000011   0.000000   0.000000   0.000000  -0.000000
    34  H    0.000001   0.000027  -0.000000  -0.000000  -0.000000   0.000000
              19         20         21         22         23         24
     1  O    0.008206  -0.000429  -0.000647  -0.000416  -0.000395   0.006552
     2  N   -0.027535   0.005488   0.004113   0.001872   0.005837  -0.024623
     3  C   -0.001360  -0.000717   0.000787  -0.057493  -0.047575  -0.032282
     4  C   -0.001518   0.001406   0.001057  -0.000332   0.002767   0.014921
[...]
     9  C    0.059974   0.021285
    10  C    0.038000   0.022583
    11  C    0.043357   0.021363
    12  C    0.055780   0.022192
    28  S    0.891385  -0.000074
    29  O   -0.510848   0.000024
    30  O   -0.570612   0.000045
    31  C    0.150894  -0.000004
 Electronic spatial extent (au):  <R**2>=           4772.5129
 Charge=             -0.0000 electrons
 Dipole moment (field-independent basis, Debye):
    X=              4.2450    Y=              1.8557    Z=             -2.0594  Tot=              5.0700
 Quadrupole moment (field-independent basis, Debye-Ang):
   XX=           -108.1930   YY=           -109.0612   ZZ=           -115.9499
   XY=              5.6930   XZ=              6.4118   YZ=             -0.6207
 Traceless Quadrupole moment (field-independent basis, Debye-Ang):
   XX=              2.8751   YY=              2.0068   ZZ=             -4.8819
   XY=              5.6930   XZ=              6.4118   YZ=             -0.6207
 Octapole moment (field-independent basis, Debye-Ang**2):
  XXX=            189.8714  YYY=             -3.8252  ZZZ=              0.3899  XYY=            -14.2178
  XXY=             -7.9134  XXZ=             -8.4652  XZZ=             -0.8641  YZZ=              6.0350
  YYZ=             -2.3362  XYZ=              0.5356
 Hexadecapole moment (field-independent basis, Debye-Ang**3):
 XXXX=          -3987.7560 YYYY=          -1374.2367 ZZZZ=           -669.6312 XXXY=            -14.4625
 XXXZ=            120.9971 YYYX=            -15.6521 YYYZ=              0.8735 ZZZX=            -11.9309
 ZZZY=             -1.8838 XXYY=           -937.4454 XXZZ=           -855.8620 YYZZ=           -348.0620
 XXYZ=             -4.2937 YYXZ=             -4.4194 ZZXY=             14.8455
 N-N= 1.520829798799D+03 E-N=-6.497048277743D+03  KE= 1.459883073499D+03
                          Isotropic Fermi Contact Couplings
        Atom                 a.u.       MegaHertz       Gauss      10(-4) cm-1
     1  O(17)              0.08641     -52.37858     -18.68998     -17.47161
     2  N(14)              0.10585      34.20193      12.20410      11.40854
     3  C(13)             -0.01507     -16.94127      -6.04506      -5.65100
     4  C(13)              0.00013       0.15139       0.05402       0.05050
     5  C(13)             -0.00042      -0.46783      -0.16693      -0.15605
     6  C(13)             -0.00059      -0.65982      -0.23544      -0.22009
     7  S(33)              0.00001       0.00484       0.00173       0.00161
     8  C(13)             -0.01507     -16.94413      -6.04609      -5.65195
     9  C(13)              0.01719      19.32324       6.89501       6.44554
    10  C(13)              0.01362      15.30724       5.46200       5.10594
    11  C(13)              0.01242      13.96305       4.98236       4.65757
    12  C(13)              0.01826      20.52904       7.32527       6.84775
    13  H(1)              -0.00029      -1.29727      -0.46290      -0.43272
    14  H(1)              -0.00003      -0.15525      -0.05540      -0.05179
    15  H(1)               0.00005       0.24256       0.08655       0.08091
    16  H(1)              -0.00034      -1.49937      -0.53501      -0.50013
    17  H(1)               0.00043       1.94229       0.69306       0.64788
    18  H(1)              -0.00050      -2.25706      -0.80538      -0.75288
    19  H(1)              -0.00051      -2.29203      -0.81785      -0.76454
    20  H(1)               0.00024       1.06699       0.38073       0.35591
    21  H(1)              -0.00039      -1.74909      -0.62412      -0.58344
    22  H(1)              -0.00039      -1.73256      -0.61822      -0.57792
    23  H(1)               0.00019       0.83765       0.29890       0.27941
    24  H(1)              -0.00048      -2.14048      -0.76378      -0.71399
    25  H(1)              -0.00049      -2.20228      -0.78583      -0.73460
    26  H(1)               0.00049       2.18467       0.77955       0.72873
    27  H(1)              -0.00034      -1.52686      -0.54482      -0.50930
    28  S(33)             -0.00001      -0.00425      -0.00152      -0.00142
    29  O(17)             -0.00001       0.00500       0.00178       0.00167
    30  O(17)             -0.00002       0.00916       0.00327       0.00306
    31  C(13)              0.00001       0.01276       0.00455       0.00426
    32  H(1)              -0.00000      -0.00040      -0.00014      -0.00013
    33  H(1)               0.00000       0.00636       0.00227       0.00212
    34  H(1)               0.00000       0.00027       0.00010       0.00009
 --------------------------------------------------------
       Center         ----  Spin Dipole Couplings  ----
                      3XX-RR        3YY-RR        3ZZ-RR
 --------------------------------------------------------
     1   Atom       -0.586418     -0.907666      1.494084
     2   Atom       -0.300443     -0.568951      0.869394
     3   Atom       -0.007391      0.010310     -0.002919
     4   Atom        0.006854     -0.005498     -0.001357
     5   Atom        0.009599     -0.006936     -0.002663
     6   Atom        0.002027     -0.001295     -0.000732
     7   Atom        0.003300     -0.001511     -0.001789
     8   Atom        0.000319      0.005460     -0.005779
     9   Atom       -0.010637      0.001949      0.008688
    10   Atom       -0.007254      0.017347     -0.010094
    11   Atom        0.002222      0.000445     -0.002667
    12   Atom       -0.016718      0.018574     -0.001855
    13   Atom        0.001631     -0.001179     -0.000452
    14   Atom        0.001414     -0.001231     -0.000183
    15   Atom        0.001150     -0.000676     -0.000475
    16   Atom        0.003433     -0.003311     -0.000122
    17   Atom        0.000391      0.002160     -0.002551
    18   Atom       -0.002295      0.003955     -0.001660
    19   Atom       -0.004981      0.010323     -0.005342
    20   Atom       -0.001162      0.003918     -0.002756
    21   Atom       -0.005384      0.000423      0.004962
    22   Atom       -0.005198     -0.002178      0.007377
    23   Atom       -0.002551      0.003498     -0.000947
    24   Atom       -0.002409      0.005097     -0.002689
    25   Atom       -0.004379      0.008697     -0.004318
    26   Atom       -0.002655      0.005280     -0.002625
    27   Atom        0.000051      0.001761     -0.001812
    28   Atom        0.001438     -0.000737     -0.000701
    29   Atom        0.001508     -0.000709     -0.000799
    30   Atom        0.001115     -0.000620     -0.000495
    31   Atom        0.000677     -0.000335     -0.000342
    32   Atom        0.000629     -0.000314     -0.000315
    33   Atom        0.000524     -0.000252     -0.000273
    34   Atom        0.000554     -0.000287     -0.000267
 --------------------------------------------------------
                        XY            XZ            YZ
 --------------------------------------------------------
     1   Atom       -0.199460      1.105309     -0.483524
     2   Atom       -0.135499      0.679234     -0.291284
     3   Atom       -0.006652     -0.002256      0.007894
     4   Atom       -0.006283     -0.006257      0.003607
     5   Atom        0.002185     -0.006893     -0.001838
     6   Atom        0.000891     -0.001809     -0.000411
     7   Atom        0.001507      0.000591      0.000377
     8   Atom        0.011802     -0.002764     -0.004147
     9   Atom        0.010660      0.008568      0.021995
    10   Atom       -0.012697      0.005395     -0.018089
    11   Atom        0.014338      0.014160      0.017352
    12   Atom       -0.005095      0.000829     -0.022723
    13   Atom       -0.002627     -0.002925      0.001915
    14   Atom        0.000294     -0.001658     -0.000238
    15   Atom        0.001536     -0.001639     -0.000957
    16   Atom        0.003864      0.007373      0.001992
    17   Atom        0.005148      0.000604      0.001038
    18   Atom        0.005004      0.002146      0.008039
    19   Atom       -0.000989     -0.001363     -0.005558
    20   Atom        0.003182     -0.001001     -0.003322
    21   Atom        0.000784      0.000237     -0.007292
    22   Atom        0.000785      0.002972      0.005474
    23   Atom       -0.000851     -0.000000      0.004772
    24   Atom        0.005354      0.001726      0.007375
    25   Atom       -0.001246     -0.001185     -0.005689
    26   Atom       -0.003465     -0.000578      0.000590
    27   Atom       -0.006258      0.005194     -0.004047
    28   Atom       -0.000188     -0.000195      0.000030
    29   Atom       -0.000547      0.000328     -0.000077
    30   Atom       -0.000341     -0.000565      0.000141
    31   Atom       -0.000040     -0.000052      0.000002
    32   Atom        0.000042      0.000066      0.000003
    33   Atom       -0.000121     -0.000025      0.000004
    34   Atom        0.000025     -0.000141     -0.000004
 --------------------------------------------------------


 ---------------------------------------------------------------------------------
              Anisotropic Spin Dipole Couplings in Principal Axis System
 ---------------------------------------------------------------------------------

       Atom             a.u.   MegaHertz   Gauss  10(-4) cm-1        Axes

              Baa    -1.0651    77.072    27.501    25.708  0.9015 -0.1278 -0.4135
     1 O(17)  Bbb    -0.9986    72.258    25.783    24.103  0.1872  0.9765  0.1064
              Bcc     2.0637  -149.329   -53.284   -49.811  0.3902 -0.1733  0.9043
 
              Baa    -0.6263   -24.154    -8.619    -8.057  0.1810  0.9775  0.1082
     2 N(14)  Bbb    -0.6117   -23.592    -8.418    -7.869  0.8937 -0.1176 -0.4330
              Bcc     1.2380    47.746    17.037    15.926  0.4105 -0.1750  0.8949
 
              Baa    -0.0096    -1.295    -0.462    -0.432  0.9321  0.3490 -0.0970
     3 C(13)  Bbb    -0.0064    -0.862    -0.308    -0.288  0.2230 -0.3419  0.9129
              Bcc     0.0161     2.157     0.770     0.719 -0.2854  0.8725  0.3965
 
              Baa    -0.0083    -1.118    -0.399    -0.373  0.2962  0.9305 -0.2155
     4 C(13)  Bbb    -0.0047    -0.634    -0.226    -0.212  0.4933  0.0442  0.8687
              Bcc     0.0131     1.752     0.625     0.585  0.8179 -0.3636 -0.4460
 
              Baa    -0.0076    -1.024    -0.366    -0.342  0.0435  0.9159  0.3990
     5 C(13)  Bbb    -0.0054    -0.730    -0.260    -0.243  0.4307 -0.3776  0.8197
              Bcc     0.0131     1.754     0.626     0.585  0.9015  0.1362 -0.4109
 
              Baa    -0.0016    -0.219    -0.078    -0.073  0.4735 -0.2063  0.8563
     6 C(13)  Bbb    -0.0015    -0.202    -0.072    -0.067 -0.0958  0.9544  0.2829
              Bcc     0.0031     0.421     0.150     0.141  0.8756  0.2160 -0.4321
 
              Baa    -0.0021    -0.086    -0.031    -0.029 -0.1427  0.7604 -0.6335
     7 S(33)  Bbb    -0.0017    -0.070    -0.025    -0.023 -0.2669  0.5868  0.7645
              Bcc     0.0038     0.156     0.056     0.052  0.9531  0.2782  0.1192
 
              Baa    -0.0093    -1.244    -0.444    -0.415  0.7428 -0.6453 -0.1784
     8 C(13)  Bbb    -0.0068    -0.916    -0.327    -0.305  0.2787  0.0558  0.9587
              Bcc     0.0161     2.160     0.771     0.720  0.6088  0.7619 -0.2213
 
              Baa    -0.0185    -2.485    -0.887    -0.829 -0.5284  0.7339 -0.4269
     9 C(13)  Bbb    -0.0133    -1.787    -0.638    -0.596  0.7932  0.2476 -0.5563
              Bcc     0.0318     4.272     1.525     1.425  0.3026  0.6326  0.7130
 
              Baa    -0.0192    -2.572    -0.918    -0.858  0.1048  0.4705  0.8761
    10 C(13)  Bbb    -0.0121    -1.623    -0.579    -0.541  0.9357  0.2517 -0.2471
              Bcc     0.0313     4.194     1.497     1.399 -0.3368  0.8457 -0.4139
 
              Baa    -0.0186    -2.496    -0.890    -0.832 -0.0838 -0.6360  0.7671
    11 C(13)  Bbb    -0.0120    -1.611    -0.575    -0.537  0.8112 -0.4907 -0.3182
              Bcc     0.0306     4.107     1.465     1.370  0.5788  0.5956  0.5570
 
              Baa    -0.0189    -2.542    -0.907    -0.848  0.7537  0.4123  0.5117
    12 C(13)  Bbb    -0.0148    -1.982    -0.707    -0.661 -0.6505  0.3573  0.6702
              Bcc     0.0337     4.524     1.614     1.509 -0.0935  0.8381 -0.5375
 
              Baa    -0.0028    -1.500    -0.535    -0.500  0.2740  0.8843 -0.3781
    13 H(1)   Bbb    -0.0025    -1.339    -0.478    -0.446  0.6271  0.1338  0.7674
              Bcc     0.0053     2.839     1.013     0.947  0.7292 -0.4473 -0.5179
 
              Baa    -0.0013    -0.692    -0.247    -0.231  0.2076  0.8470  0.4895
    14 H(1)   Bbb    -0.0012    -0.638    -0.228    -0.213  0.4982 -0.5221  0.6922
              Bcc     0.0025     1.330     0.475     0.444  0.8419  0.1002 -0.5303
 
              Baa    -0.0016    -0.830    -0.296    -0.277 -0.3462  0.8984  0.2703
    15 H(1)   Bbb    -0.0015    -0.796    -0.284    -0.265  0.5444 -0.0423  0.8378
              Bcc     0.0030     1.625     0.580     0.542  0.7641  0.4372 -0.4744
 
              Baa    -0.0063    -3.363    -1.200    -1.122  0.6484 -0.4104 -0.6412
    16 H(1)   Bbb    -0.0043    -2.270    -0.810    -0.757  0.0488  0.8629 -0.5030
              Bcc     0.0106     5.633     2.010     1.879  0.7597  0.2949  0.5795
 
              Baa    -0.0040    -2.124    -0.758    -0.709  0.7434 -0.6499  0.1580
    17 H(1)   Bbb    -0.0027    -1.425    -0.508    -0.475 -0.2030  0.0059  0.9792
              Bcc     0.0067     3.549     1.266     1.184  0.6373  0.7600  0.1275
 
              Baa    -0.0077    -4.116    -1.469    -1.373  0.2886 -0.6240  0.7262
    18 H(1)   Bbb    -0.0040    -2.125    -0.758    -0.709  0.8884 -0.1083 -0.4461
              Bcc     0.0117     6.241     2.227     2.082  0.3570  0.7739  0.5231
 
              Baa    -0.0080    -4.254    -1.518    -1.419  0.4731  0.2794  0.8355
    19 H(1)   Bbb    -0.0041    -2.208    -0.788    -0.737  0.8805 -0.1164 -0.4596
              Bcc     0.0121     6.462     2.306     2.155 -0.0312  0.9531 -0.3011
 
              Baa    -0.0042    -2.227    -0.795    -0.743 -0.1548  0.4267  0.8910
    20 H(1)   Bbb    -0.0025    -1.346    -0.480    -0.449  0.9078 -0.2944  0.2987
              Bcc     0.0067     3.573     1.275     1.192  0.3898  0.8551 -0.3418
 
              Baa    -0.0060    -3.185    -1.137    -1.062  0.7990 -0.4922 -0.3456
    21 H(1)   Bbb    -0.0044    -2.328    -0.831    -0.777  0.6011  0.6369  0.4827
              Bcc     0.0103     5.514     1.967     1.839 -0.0175 -0.5934  0.8047
 
              Baa    -0.0060    -3.191    -1.138    -1.064  0.9166  0.2546 -0.3083
    22 H(1)   Bbb    -0.0045    -2.386    -0.851    -0.796 -0.3516  0.8803 -0.3185
              Bcc     0.0105     5.577     1.990     1.860  0.1903  0.4003  0.8964
 
              Baa    -0.0041    -2.201    -0.785    -0.734 -0.2871 -0.5311  0.7972
    23 H(1)   Bbb    -0.0025    -1.318    -0.470    -0.440  0.9547 -0.0905  0.2835
              Bcc     0.0066     3.519     1.256     1.174 -0.0784  0.8425  0.5330
 
              Baa    -0.0076    -4.062    -1.450    -1.355  0.3466 -0.5757  0.7406
    24 H(1)   Bbb    -0.0041    -2.172    -0.775    -0.725  0.8645 -0.1103 -0.4904
              Bcc     0.0117     6.235     2.225     2.080  0.3640  0.8102  0.4594
 
              Baa    -0.0073    -3.888    -1.387    -1.297  0.4737  0.3279  0.8174
    25 H(1)   Bbb    -0.0036    -1.912    -0.682    -0.638  0.8793 -0.1238 -0.4599
              Bcc     0.0109     5.800     2.070     1.935 -0.0496  0.9366 -0.3470
 
              Baa    -0.0040    -2.154    -0.769    -0.719  0.9150  0.3252  0.2386
    26 H(1)   Bbb    -0.0026    -1.389    -0.496    -0.463 -0.1960 -0.1585  0.9677
              Bcc     0.0066     3.544     1.264     1.182 -0.3525  0.9323  0.0813
 
              Baa    -0.0064    -3.427    -1.223    -1.143  0.7492  0.2748 -0.6027
    27 H(1)   Bbb    -0.0042    -2.235    -0.797    -0.745  0.2599  0.7149  0.6491
              Bcc     0.0106     5.662     2.020     1.889 -0.6093  0.6430 -0.4641
 
              Baa    -0.0008    -0.031    -0.011    -0.010  0.0516  0.9433 -0.3279
    28 S(33)  Bbb    -0.0007    -0.029    -0.010    -0.010  0.1132  0.3207  0.9404
              Bcc     0.0015     0.060     0.022     0.020  0.9922 -0.0856 -0.0903
 
              Baa    -0.0008     0.061     0.022     0.020 -0.1188  0.0829  0.9894
    29 O(17)  Bbb    -0.0008     0.060     0.022     0.020  0.2339  0.9708 -0.0533
              Bcc     0.0017    -0.122    -0.043    -0.041  0.9650 -0.2251  0.1348
 
              Baa    -0.0007     0.052     0.018     0.017 -0.0525  0.7705 -0.6352
    30 O(17)  Bbb    -0.0006     0.047     0.017     0.016  0.3464  0.6107  0.7121
              Bcc     0.0014    -0.099    -0.035    -0.033  0.9366 -0.1826 -0.2990
 
              Baa    -0.0003    -0.046    -0.016    -0.015  0.0535  0.0594  0.9968
    31 C(13)  Bbb    -0.0003    -0.045    -0.016    -0.015  0.0365  0.9974 -0.0614
              Bcc     0.0007     0.091     0.033     0.030  0.9979 -0.0396 -0.0512
 
              Baa    -0.0003    -0.171    -0.061    -0.057 -0.0707  0.0268  0.9971
    32 H(1)   Bbb    -0.0003    -0.169    -0.060    -0.056 -0.0423  0.9987 -0.0298
              Bcc     0.0006     0.339     0.121     0.113  0.9966  0.0443  0.0694
 
              Baa    -0.0003    -0.146    -0.052    -0.049  0.0341  0.0163  0.9993
    33 H(1)   Bbb    -0.0003    -0.144    -0.051    -0.048  0.1501  0.9884 -0.0212
              Bcc     0.0005     0.290     0.103     0.097  0.9881 -0.1507 -0.0313
 
              Baa    -0.0003    -0.155    -0.055    -0.052  0.1665 -0.1395  0.9761
    34 H(1)   Bbb    -0.0003    -0.153    -0.055    -0.051 -0.0053  0.9898  0.1423
              Bcc     0.0006     0.308     0.110     0.103  0.9860  0.0289 -0.1641
 

 ---------------------------------------------------------------------------------

 No NMR shielding tensors so no spin-rotation constants.
 Leave Link  601 at Mon Jun 17 21:25:17 2019, MaxMem=  8053063680 cpu:               0.0 elap:               0.3
 (Enter /data2/g16/g16/l9999.exe)
 1\1\GINC-CU04\SP\UPBE1PBE\Gen\C10H18N1O3S2(2)\ROOT\17-Jun-2019\0\\#p g
 en 6d pbe1pbe\\start preoptimized\\0,2\O,0,-3.757682,0.204649,0.881201
 \N,0,-2.609831,0.035469,0.378421\C,0,-2.161233,-1.267829,-0.157332\C,0
 ,-0.880283,-0.850892,-0.818339\C,0,-0.605404,0.448574,-0.657788\C,0,0.
 605145,1.125376,-1.198988\S,0,1.942567,1.441561,0.033285\C,0,-1.692506
 ,1.165435,0.114541\C,0,-1.236336,1.76431,1.448611\C,0,-2.423099,2.2200
 54,-0.720914\C,0,-3.208901,-1.809544,-1.13318\C,0,-1.923442,-2.257064,
 0.988431\H,0,-0.239533,-1.560474,-1.335113\H,0,1.061789,0.539249,-2.00
 2942\H,0,0.388348,2.128995,-1.583368\H,0,-0.668715,1.03584,2.036619\H,
 0,-0.605183,2.645065,1.291561\H,0,-2.121728,2.069291,2.017422\H,0,-3.3
 16192,2.545935,-0.180846\H,0,-1.784185,3.09403,-0.891269\H,0,-2.729898
 ,1.811368,-1.689986\H,0,-3.363085,-1.118658,-1.966764\H,0,-2.891184,-2
 .776333,-1.533676\H,0,-4.160869,-1.939948,-0.606538\H,0,-2.854151,-2.4
 01714,1.54857\H,0,-1.596977,-3.225113,0.594568\H,0,-1.151509,-1.88475,
 1.671699\S,0,2.758423,-0.534488,0.109876\O,0,2.336232,-1.21279,1.35272
 4\O,0,2.507439,-1.182662,-1.203959\C,0,4.510088,-0.16968,0.247146\H,0,
 4.660352,0.447418,1.133787\H,0,4.998613,-1.140787,0.363206\H,0,4.83039
 8,0.333714,-0.666395\\Version=AM64L-G16RevB.01\State=2-A\HF=-1467.5485
 028\S2=0.755012\S2-1=0.\S2A=0.750017\RMSD=8.842e-09\Dipole=1.6734676,0
 .7272916,-0.805809\Quadrupole=2.1326099,1.4754802,-3.6080901,4.2287442
 ,4.782678,-0.4575293\PG=C01 [X(C10H18N1O3S2)]\\@


 DIATOMIC MOLECULES ARE PECULIAR BECAUSE THEY ONLY HAVE TWO ENDS,
 AND THESE ENDS ARE VERY CLOSE TOGETHER.
 KLAUS RUEDENBERG, REV.MOD.PHYS. PG 176, 32, (1960)
 Elapsed time:       0 days  0 hours  2 minutes 40.4 seconds.
 File lengths (MBytes):  RWF=    181 Int=      0 D2E=      0 Chk=     15 Scr=      1
 Normal termination of Gaussian 16 at Mon Jun 17 21:25:18 2019.
