 Entering Gaussian System, Link 0=g16
 AtFile(1): /home/malgo/Basis_sets/n07d_pbe0.gbs
            -H 0
             6-31G
             S   1 1.00       0.000000000000
                  0.4000000000D+00  0.10000000D+01
             P   1 1.00       0.000000000000
                  0.7500000000D+00  0.10000000D+01
             ****
             -He 0
             6-31+G**
             ****
             -Li 0
             6-31+G**
             ****
             -Be 0
             6-31+G**
             ****
             -B 0
             6-31G
             S   1 1.00       0.000000000000
                  0.7000000000D+01  0.1000000000D+01
             P   1 1.00       0.000000000000
                  0.3500000000D-01  0.1000000000D+01
             D   1 1.00
                  0.3430000000D+00  0.1000000000D+01
             ****
             -C 0
             6-31G
             S   1 1.00       0.000000000000
                  0.8700000000D+01  0.1000000000D+01
             P   1 1.00       0.000000000000
                  0.5000000000D-01  0.1000000000D+01
             D   1 1.00
                  0.8200000000D+00  0.1000000000D+01
             ****
             -N 0
             6-31G
             S   1 1.00       0.000000000000
                  0.1370000000D+02  0.1000000000D+01
             P   1 1.00       0.000000000000
                  0.5300000000D-01  0.1000000000D+01
             D   1 1.00       0.000000000000
                  0.1015000000D+01  0.1000000000D+01
             ****
             -O 0
             6-31G
             S   1 1.00
                  0.1600000000D+02  0.1000000000D+01
             P   1 1.00       0.000000000000
                  0.6500000000D-01  0.1000000000D+01
             D   1 1.00        0.000000000000
                  0.1190000000D+01  0.1000000000D+01
             D   1 1.00        0.000000000000
                  0.1800000000D+00  0.1000000000D+01
             ****
             -F 0
             6-31G
             S   1 1.00
                  0.1770000000D+02  0.1000000000D+01
             P   1 1.00       0.000000000000
                  0.8300000000D-01  0.1000000000D+01
             D   1 1.00       0.000000000000
                  1.3700000000D+00  0.1000000000D+01
             D   1 1.00       0.000000000000
                  0.2300000000D+00  0.1000000000D+01
             ****
             -Ne 0
             6-31+G**
             ****
             -Na 0
             6-31+G**
             ****
             -Mg 0
             6-31+G**
             ****
             -Al 0
             6-31G
             S   1 1.00      0.000000000000
                  0.3100000000D+01  0.1000000000D+01
             P   1 1.00      0.000000000000
                  0.1500000000D-01  0.1000000000D+01
             D   1 1.00      0.000000000000
                  0.1890000000D+00  0.1000000000D+01
             ****
             -Si 0
             6-31G
             S   1 1.00      0.000000000000
                  0.5000000000D+01  0.1000000000D+01
             P   1 1.00       0.000000000000
                  0.3300000000D-01  0.1000000000D+01
             D   1 1.0        0.000000000000
                  0.2750000000D+00  0.1000000000D+01
             ****
             -P  0
             6-31G
             S   1 1.00       0.000000000000
                  0.6300000000D+01  0.1000000000D+01
             P   1 1.00       0.000000000000
                  0.3500000000D-01  0.1000000000D+01
             D   1 1.00       0.000000000000
                  0.3730000000D+00  0.1000000000D+01
             ****
             -S  0
             6-31G
             S   1  1.00      0.000000000000
                  0.7500000000D+01  0.1000000000D+01
             P   1 1.00       0.000000000000
                  0.4100000000D-01  0.1000000000D+01
             D   1 1.00       0.000000000000
                  0.4790000000D+00  0.1000000000D+01
             ****
            -Cl 0
             6-31G
             S   1 1.00       0.000000000000
                  0.8500000000D+01  0.1000000000D+01
             P   1 1.00       0.000000000000
                  0.4800000000D-01  0.1000000000D+01
             D   1 1.00       0.000000000000
                  0.6000000000D+00  0.1000000000D+01
             D   1 1.00       0.000000000000
                  0.1960000000D+00  0.1000000000D+01
             ****
            -Br 0
             S   3 1.00       0.000000000000
                  0.4721881000D+01  0.1749732514D+00
                  0.2257555000D+01 -0.7074172290D+00
                  0.3896080000D+00  0.1258999543D+01
             S   1 1.00       0.000000000000
                  0.1471340000D+00  0.1000000000D+01
             P   3 1.00       0.000000000000
                  0.1896942000D+01 -0.2464576731D+00
                  0.9108990000D+00  0.3623179892D+00
                  0.3168550000D+00  0.8338469725D+00
             P   1 1.00       0.000000000000
                  0.1095030000D+00  0.1000000000D+01
             P   1 1.00       0.000000000000
                  0.3609700000D-01  0.1000000000D+01
             D   1 1.00
                  0.4750000000D+00  0.1000000000D+01
             D   1 1.00
                  0.1280000000D+00  0.1000000000D+01
             ****
            -I   0
             S   3 1.00       0.000000000000
                  0.2122765000D+01  0.2063429899D+01
                  0.1770481000D+01 -0.2869526473D+01
                  0.3130840000D+00  0.1404747074D+01
             S   1 1.00       0.000000000000
                  0.1320000000D+00  0.1000000000D+01
             P   3 1.00       0.000000000000
                  0.2432887000D+01  0.7732753148D+00
                  0.2137249000D+01 -0.1020833156D+01
                  0.3145460000D+00  0.1095666871D+01
             P   1 1.00       0.000000000000
                  0.1049450000D+00  0.1000000000D+01
             P   1 1.00       0.000000000000
                  0.3264100000D-01  0.1000000000D+01
             D   1 1.00
                  0.300000000          1.00000000
             D   1 1.00
                  0.090000000          1.00000000
             ****
             -Zn 0
             SP   6 1.00       0.000000000000
                  0.6936492000D+02 -0.4440098182D-02 -0.7689261805D-02
                  0.2362082000D+02  0.7505253308D-01 -0.2997981924D-01
                  0.1018471000D+02  0.2533111104D+00  0.7082410821D-01
                  0.4334082000D+01 -0.2881897118D+00  0.4046140897D+00
                  0.1810918000D+01 -0.7267052298D+00  0.4882324876D+00
                  0.7148410000D+00 -0.2133439088D+00  0.1751969956D+00
             SP   3 1.00       0.000000000000
                  0.2823842000D+01  0.4898545031D-01 -0.1586762981D+00
                  0.1039543000D+01  0.2592794075D+00  0.8379326898D-01
                  0.1432640000D+00 -0.1115711463D+01  0.9840546881D+00
             SP   1 1.00       0.000000000000
                  0.4929600000D-01  0.1000000000D+01  0.1000000000D+01
             S    1 1.00       0.000000000000
                  0.1620000000D+00  0.1000000000D+01
             D    3 1.00       0.000000000000
                  0.3370764000D+02  0.9262647815D-01
                  0.9061106000D+01  0.4002979920D+00
                  0.2738383000D+01  0.6896607863D+00
             D    1 1.00
                  0.2440000000D+01  0.1000000000D+01
             D    1 1.00       0.000000000000
                  0.7302940000D+00  0.1000000000D+01
             D    1 1.00       0.000000000000
                  0.1620000000D+00  0.1000000000D+01
            ****
 Initial command:
 /data2/g16/g16/l1.exe "/tmp/Gau-9667.inp" -scrdir="/tmp/"
 Entering Link 1 = /data2/g16/g16/l1.exe PID=      9668.
  
 Copyright (c) 1988-2017, Gaussian, Inc.  All Rights Reserved.
  
 This is part of the Gaussian(R) 16 program.  It is based on
 the Gaussian(R) 09 system (copyright 2009, Gaussian, Inc.),
 the Gaussian(R) 03 system (copyright 2003, Gaussian, Inc.),
 the Gaussian(R) 98 system (copyright 1998, Gaussian, Inc.),
 the Gaussian(R) 94 system (copyright 1995, Gaussian, Inc.),
 the Gaussian 92(TM) system (copyright 1992, Gaussian, Inc.),
 the Gaussian 90(TM) system (copyright 1990, Gaussian, Inc.),
 the Gaussian 88(TM) system (copyright 1988, Gaussian, Inc.),
 the Gaussian 86(TM) system (copyright 1986, Carnegie Mellon
 University), and the Gaussian 82(TM) system (copyright 1983,
 Carnegie Mellon University). Gaussian is a federally registered
 trademark of Gaussian, Inc.
  
 This software contains proprietary and confidential information,
 including trade secrets, belonging to Gaussian, Inc.
  
 This software is provided under written license and may be
 used, copied, transmitted, or stored only in accord with that
 written license.
  
 The following legend is applicable only to US Government
 contracts under FAR:
  
                    RESTRICTED RIGHTS LEGEND
  
 Use, reproduction and disclosure by the US Government is
 subject to restrictions as set forth in subparagraphs (a)
 and (c) of the Commercial Computer Software - Restricted
 Rights clause in FAR 52.227-19.
  
 Gaussian, Inc.
 340 Quinnipiac St., Bldg. 40, Wallingford CT 06492
  
  
 ---------------------------------------------------------------
 Warning -- This program may not be used in any manner that
 competes with the business of Gaussian, Inc. or will provide
 assistance to any competitor of Gaussian, Inc.  The licensee
 of this program is prohibited from giving any competitor of
 Gaussian, Inc. access to this program.  By using this program,
 the user acknowledges that Gaussian, Inc. is engaged in the
 business of creating and licensing software in the field of
 computational chemistry and represents and warrants to the
 licensee that it is not a competitor of Gaussian, Inc. and that
 it will not use this program in any manner prohibited above.
 ---------------------------------------------------------------
  

 Cite this work as:
 Gaussian 16, Revision B.01,
 M. J. Frisch, G. W. Trucks, H. B. Schlegel, G. E. Scuseria, 
 M. A. Robb, J. R. Cheeseman, G. Scalmani, V. Barone, 
 G. A. Petersson, H. Nakatsuji, X. Li, M. Caricato, A. V. Marenich, 
 J. Bloino, B. G. Janesko, R. Gomperts, B. Mennucci, H. P. Hratchian, 
 J. V. Ortiz, A. F. Izmaylov, J. L. Sonnenberg, D. Williams-Young, 
 F. Ding, F. Lipparini, F. Egidi, J. Goings, B. Peng, A. Petrone, 
 T. Henderson, D. Ranasinghe, V. G. Zakrzewski, J. Gao, N. Rega, 
 G. Zheng, W. Liang, M. Hada, M. Ehara, K. Toyota, R. Fukuda, 
 J. Hasegawa, M. Ishida, T. Nakajima, Y. Honda, O. Kitao, H. Nakai, 
 T. Vreven, K. Throssell, J. A. Montgomery, Jr., J. E. Peralta, 
 F. Ogliaro, M. J. Bearpark, J. J. Heyd, E. N. Brothers, K. N. Kudin, 
 V. N. Staroverov, T. A. Keith, R. Kobayashi, J. Normand, 
 K. Raghavachari, A. P. Rendell, J. C. Burant, S. S. Iyengar, 
 J. Tomasi, M. Cossi, J. M. Millam, M. Klene, C. Adamo, R. Cammi, 
 J. W. Ochterski, R. L. Martin, K. Morokuma, O. Farkas, 
 J. B. Foresman, and D. J. Fox, Gaussian, Inc., Wallingford CT, 2016.
 
 ******************************************
 Gaussian 16:  AM64L-G16RevB.01 20-Dec-2017
                17-Jun-2019 
 ******************************************
 %chk=MTN_PBE0_0.29.chk
 %mem=60GB
 %nprocshared=12
 Will use up to   12 processors via shared memory.
 -----------------
 #p gen 6d pbe1pbe
 -----------------
 1/38=1,172=1/1;
 2/12=2,17=6,18=5,40=1/2;
 3/5=7,8=2,11=2,25=1,30=1,74=-13/1,2,3;
 4//1;
 5/5=2,38=5/2;
 6/7=2,8=2,9=2,10=2,28=1/1;
 99/5=1,9=1/99;
 Leave Link    1 at Mon Jun 17 21:33:29 2019, MaxMem=  8053063680 cpu:               0.0 elap:               0.1
 (Enter /data2/g16/g16/l101.exe)
 ------------------
 start preoptimized
 ------------------
 Symbolic Z-matrix:
 Charge =  0 Multiplicity = 2
 O                    -3.66078   0.16385   1.0597 
 N                    -2.64553   0.04567   0.30702 
 C                    -2.17143  -1.26783  -0.17263 
 C                    -0.85988  -0.86619  -0.77754 
 C                    -0.5952    0.43837  -0.64759 
 C                     0.61025   1.12028  -1.19389 
 S                     1.94767   1.45176   0.03329 
 C                    -1.70271   1.16543   0.08904 
 C                    -1.28734   1.74391   1.44351 
 C                    -2.3823    2.24045  -0.76681 
 C                    -3.1477   -1.82994  -1.20968 
 C                    -2.02544  -2.22646   1.01393 
 H                    -0.20383  -1.58087  -1.26881 
 H                     1.06689   0.53415  -1.99274 
 H                     0.38325   2.11879  -1.58337 
 H                    -0.75542   1.00014   2.04172 
 H                    -0.63578   2.61447   1.31196 
 H                    -2.18803   2.05399   1.98172 
 H                    -3.29579   2.57654  -0.26245 
 H                    -1.72809   3.10933  -0.90147 
 H                    -2.6534    1.84707  -1.75119 
 H                    -3.24069  -1.15436  -2.06876 
 H                    -2.79938  -2.80693  -1.56938 
 H                    -4.13537  -1.95525  -0.75444 
 H                    -2.99695  -2.33541   1.50777 
 H                    -1.68878  -3.20981   0.66597 
 H                    -1.29941  -1.84905   1.738 
 S                     2.75332  -0.52939   0.10478 
 O                     2.32603  -1.20769   1.34762 
 O                     2.49724  -1.16736  -1.20906 
 C                     4.51009  -0.18498   0.23695 
 H                     4.67055   0.42702   1.12869 
 H                     4.98841  -1.16119   0.34791 
 H                     4.8304    0.32351  -0.6715 
 
 ITRead=  0  0  0  0  0  0  0  0  0  0  0  0  0  0  0  0  0  0  0  0
 ITRead=  0  0  0  0  0  0  0  0  0  0  0  0  0  0
 MicOpt= -1 -1 -1 -1 -1 -1 -1 -1 -1 -1 -1 -1 -1 -1 -1 -1 -1 -1 -1 -1
 MicOpt= -1 -1 -1 -1 -1 -1 -1 -1 -1 -1 -1 -1 -1 -1
 NAtoms=     34 NQM=       34 NQMF=       0 NMMI=      0 NMMIF=      0
                NMic=       0 NMicF=      0.
                    Isotopes and Nuclear Properties:
 (Nuclear quadrupole moments (NQMom) in fm**2, nuclear magnetic moments (NMagM)
  in nuclear magnetons)

  Atom         1           2           3           4           5           6           7           8           9          10
 IAtWgt=          16          14          12          12          12          12          32          12          12          12
 AtmWgt=  15.9949146  14.0030740  12.0000000  12.0000000  12.0000000  12.0000000  31.9720718  12.0000000  12.0000000  12.0000000
 NucSpn=           0           2           0           0           0           0           0           0           0           0
 AtZEff=   0.0000000   0.0000000   0.0000000   0.0000000   0.0000000   0.0000000   0.0000000   0.0000000   0.0000000   0.0000000
 NQMom=    0.0000000   2.0440000   0.0000000   0.0000000   0.0000000   0.0000000   0.0000000   0.0000000   0.0000000   0.0000000
 NMagM=    0.0000000   0.4037610   0.0000000   0.0000000   0.0000000   0.0000000   0.0000000   0.0000000   0.0000000   0.0000000
 AtZNuc=   8.0000000   7.0000000   6.0000000   6.0000000   6.0000000   6.0000000  16.0000000   6.0000000   6.0000000   6.0000000

  Atom        11          12          13          14          15          16          17          18          19          20
 IAtWgt=          12          12           1           1           1           1           1           1           1           1
 AtmWgt=  12.0000000  12.0000000   1.0078250   1.0078250   1.0078250   1.0078250   1.0078250   1.0078250   1.0078250   1.0078250
 NucSpn=           0           0           1           1           1           1           1           1           1           1
 AtZEff=   0.0000000   0.0000000   0.0000000   0.0000000   0.0000000   0.0000000   0.0000000   0.0000000   0.0000000   0.0000000
 NQMom=    0.0000000   0.0000000   0.0000000   0.0000000   0.0000000   0.0000000   0.0000000   0.0000000   0.0000000   0.0000000
 NMagM=    0.0000000   0.0000000   2.7928460   2.7928460   2.7928460   2.7928460   2.7928460   2.7928460   2.7928460   2.7928460
 AtZNuc=   6.0000000   6.0000000   1.0000000   1.0000000   1.0000000   1.0000000   1.0000000   1.0000000   1.0000000   1.0000000

  Atom        21          22          23          24          25          26          27          28          29          30
 IAtWgt=           1           1           1           1           1           1           1          32          16          16
 AtmWgt=   1.0078250   1.0078250   1.0078250   1.0078250   1.0078250   1.0078250   1.0078250  31.9720718  15.9949146  15.9949146
 NucSpn=           1           1           1           1           1           1           1           0           0           0
 AtZEff=   0.0000000   0.0000000   0.0000000   0.0000000   0.0000000   0.0000000   0.0000000   0.0000000   0.0000000   0.0000000
 NQMom=    0.0000000   0.0000000   0.0000000   0.0000000   0.0000000   0.0000000   0.0000000   0.0000000   0.0000000   0.0000000
 NMagM=    2.7928460   2.7928460   2.7928460   2.7928460   2.7928460   2.7928460   2.7928460   0.0000000   0.0000000   0.0000000
 AtZNuc=   1.0000000   1.0000000   1.0000000   1.0000000   1.0000000   1.0000000   1.0000000  16.0000000   8.0000000   8.0000000

  Atom        31          32          33          34
 IAtWgt=          12           1           1           1
 AtmWgt=  12.0000000   1.0078250   1.0078250   1.0078250
 NucSpn=           0           1           1           1
 AtZEff=   0.0000000   0.0000000   0.0000000   0.0000000
 NQMom=    0.0000000   0.0000000   0.0000000   0.0000000
 NMagM=    0.0000000   2.7928460   2.7928460   2.7928460
 AtZNuc=   6.0000000   1.0000000   1.0000000   1.0000000
 Leave Link  101 at Mon Jun 17 21:33:29 2019, MaxMem=  8053063680 cpu:               0.0 elap:               0.2
 (Enter /data2/g16/g16/l202.exe)
                          Input orientation:                          
 ---------------------------------------------------------------------
 Center     Atomic      Atomic             Coordinates (Angstroms)
 Number     Number       Type             X           Y           Z
 ---------------------------------------------------------------------
      1          8           0       -3.660782    0.163849    1.059701
      2          7           0       -2.645531    0.045669    0.307021
      3          6           0       -2.171433   -1.267829   -0.172632
      4          6           0       -0.859883   -0.866192   -0.777539
      5          6           0       -0.595204    0.438374   -0.647588
      6          6           0        0.610245    1.120276   -1.193888
      7         16           0        1.947667    1.451761    0.033285
      8          6           0       -1.702706    1.165435    0.089041
      9          6           0       -1.287336    1.743910    1.443511
     10          6           0       -2.382299    2.240454   -0.766814
     11          6           0       -3.147701   -1.829944   -1.209680
     12          6           0       -2.025442   -2.226464    1.013931
     13          1           0       -0.203833   -1.580874   -1.268813
     14          1           0        1.066889    0.534149   -1.992742
     15          1           0        0.383248    2.118795   -1.583368
     16          1           0       -0.755415    1.000140    2.041719
     17          1           0       -0.635783    2.614465    1.311961
     18          1           0       -2.188028    2.053991    1.981722
     19          1           0       -3.295792    2.576535   -0.262446
     20          1           0       -1.728085    3.109330   -0.901469
     21          1           0       -2.653398    1.847068   -1.751186
     22          1           0       -3.240685   -1.154358   -2.068764
     23          1           0       -2.799384   -2.806933   -1.569376
     24          1           0       -4.135369   -1.955248   -0.754438
     25          1           0       -2.996951   -2.335414    1.507770
     26          1           0       -1.688777   -3.209813    0.665968
     27          1           0       -1.299409   -1.849050    1.737999
     28         16           0        2.753323   -0.529388    0.104776
     29          8           0        2.326032   -1.207690    1.347624
     30          8           0        2.497239   -1.167362   -1.209059
     31          6           0        4.510088   -0.184980    0.236946
     32          1           0        4.670552    0.427018    1.128687
     33          1           0        4.988413   -1.161187    0.347906
     34          1           0        4.830398    0.323514   -0.671495
 ---------------------------------------------------------------------
                    Distance matrix (angstroms):
                    1          2          3          4          5
     1  O    0.000000
     2  N    1.269342   0.000000
     3  C    2.405516   1.476521   0.000000
     4  C    3.504493   2.279539   1.499129   0.000000
     5  C    3.519655   2.295504   2.370909   1.337473   0.000000
     6  C    4.922915   3.742671   3.805751   2.506128   1.488805
     7  S    5.845250   4.811392   4.940198   3.729970   2.820768
     8  C    2.404042   1.479970   2.491777   2.364068   1.515850
     9  C    2.877003   2.453635   3.530456   3.453753   2.560501
    10  C    3.046796   2.457538   3.564487   3.459641   2.540751
    11  C    3.064075   2.463835   1.531189   2.519856   3.460702
    12  C    2.896555   2.459028   1.532392   2.533423   3.450737
    13  H    4.518466   3.330283   2.273996   1.087438   2.148594
    14  H    5.639628   4.394267   4.128759   2.673972   2.140366
    15  H    5.211699   4.128550   4.470547   3.332399   2.157978
    16  H    3.178820   2.737285   3.471619   3.382650   2.752021
    17  H    3.901253   3.412873   4.431077   4.065858   2.928626
    18  H    2.567443   2.654673   3.959293   4.231425   3.472834
    19  H    2.775310   2.674400   4.006418   4.248687   3.466012
    20  H    4.032042   3.418797   4.459516   4.071107   2.912367
    21  H    3.427701   2.735199   3.525153   3.395065   2.727363
    22  H    3.420737   2.727385   2.179792   2.723696   3.399280
    23  H    4.059507   3.417876   2.171188   2.855722   4.029903
    24  H    2.829648   2.711085   2.160576   3.451867   4.274764
    25  H    2.624453   2.689768   2.155219   3.456633   4.255333
    26  H    3.927521   3.412094   2.169679   2.874602   4.028722
    27  H    3.176151   2.729414   2.179164   2.736261   3.379236
    28  S    6.521748   5.433159   4.987532   3.734592   3.565845
    29  O    6.148655   5.231654   4.747840   3.844866   3.901797
    30  O    6.696314   5.497093   4.783385   3.398114   3.529425
    31  C    8.219594   7.159678   6.781079   5.507251   5.218714
    32  H    8.335775   7.371949   7.167893   5.990977   5.557290
    33  H    8.779006   7.728860   7.179535   5.962903   5.892910
    34  H    8.667334   7.544813   7.197699   5.814288   5.426870
                    6          7          8          9         10
     6  C    0.000000
     7  S    1.845138   0.000000
     8  C    2.645314   3.662010   0.000000
     9  C    3.308414   3.541092   1.530279   0.000000
    10  C    3.223742   4.473343   1.532971   2.516155   0.000000
    11  C    4.777678   6.186867   3.570292   4.824190   4.165346
    12  C    4.798122   5.502418   3.530518   4.061183   4.822007
    13  H    2.822153   3.939706   3.410660   4.425480   4.427219
    14  H    1.090980   2.392189   3.521789   4.337480   4.038722
    15  H    1.095565   2.346467   2.838495   3.477555   2.886141
    16  H    3.514059   3.397708   2.176611   1.092697   3.474621
    17  H    3.172454   3.108232   2.175671   1.095305   2.740713
    18  H    4.334357   4.611189   2.146465   1.094106   2.761695
    19  H    4.271463   5.370888   2.157005   2.763594   1.096270
    20  H    3.083769   4.139137   2.181853   2.749102   1.095935
    21  H    3.389716   4.950798   2.180567   3.476040   1.094183
    22  H    4.557305   6.174906   3.521781   4.954958   3.735860
    23  H    5.214358   6.575674   4.442157   5.663387   5.127785
    24  H    5.672109   7.016519   4.045735   5.160043   4.547232
    25  H    5.679138   6.400472   3.992970   4.423550   5.146853
    26  H    5.243495   5.945947   4.413143   5.030417   5.677962
    27  H    4.589078   4.934056   3.459600   3.605029   4.916379
    28  S    3.000117   2.139893   4.767480   4.825663   5.899687
    29  O    3.850017   2.990540   4.842157   4.666644   6.207167
    30  O    2.965512   2.950467   4.976600   5.462110   5.968139
    31  C    4.354280   3.047360   6.359584   6.227884   7.375314
    32  H    4.728748   3.108715   6.499580   6.109808   7.524904
    33  H    5.172094   4.021520   7.088812   7.001783   8.193971
    34  H    4.326363   3.174869   6.630889   6.627024   7.463695
                   11         12         13         14         15
    11  C    0.000000
    12  C    2.522130   0.000000
    13  H    2.954977   2.990981   0.000000
    14  H    4.895395   5.120896   2.571406   0.000000
    15  H    5.310347   5.606160   3.759143   1.773712   0.000000
    16  H    4.929909   3.616668   4.233851   4.451383   3.960959
    17  H    5.693960   5.045252   4.944476   4.260032   3.109187
    18  H    5.117711   4.391509   5.264528   5.357310   4.396081
    19  H    4.509572   5.129496   5.277976   5.118423   3.935695
    20  H    5.148469   5.676960   4.945331   3.954025   2.429789
    21  H    3.749397   4.963251   4.240736   3.952549   3.053394
    22  H    1.096854   3.482705   3.169276   4.627313   4.907345
    23  H    1.097822   2.758515   2.886251   5.127391   5.864481
    24  H    1.094730   2.766311   3.982677   5.898642   6.140265
    25  H    2.768169   1.095252   4.010019   6.082990   6.389120
    26  H    2.747827   1.096082   2.932896   5.355342   6.143848
    27  H    3.479276   1.092630   3.211405   5.019704   5.441195
    28  S    6.183957   5.152012   3.425951   2.893916   3.934458
    29  O    6.073612   4.481582   3.658582   3.972089   4.840519
    30  O    5.683693   5.149566   2.733195   2.356947   3.925289
    31  C    7.964946   6.890901   5.141681   4.164646   5.064754
    32  H    8.466813   7.203504   5.791309   4.768772   5.347740
    33  H    8.310816   7.125487   5.454295   4.871463   5.974583
    34  H    8.281128   7.506370   5.415438   3.994253   4.881771
                   16         17         18         19         20
    16  H    0.000000
    17  H    1.775642   0.000000
    18  H    1.779489   1.781060   0.000000
    19  H    3.774614   3.091253   2.556655   0.000000
    20  H    3.749283   2.517397   3.104525   1.774803   0.000000
    21  H    4.325015   3.747337   3.767491   1.777959   1.780879
    22  H    5.264456   5.693755   5.273332   4.145526   4.672213
    23  H    5.631307   6.509595   6.050838   5.562033   6.049459
    24  H    5.289320   6.115504   5.229981   4.635084   5.609508
    25  H    4.054073   5.487691   4.488414   5.229743   6.087667
    26  H    4.526319   5.953849   5.448678   6.076699   6.510758
    27  H    2.916515   4.532645   4.010333   5.251012   5.633479
    28  S    4.289807   4.777776   5.883343   6.809802   5.859677
    29  O    3.853777   4.835544   5.605121   6.965457   6.334899
    30  O    5.083835   5.520288   6.519964   6.962187   6.019806
    31  C    5.690979   5.955883   7.274750   8.295006   7.145857
    32  H    5.532017   5.742448   7.100340   8.367694   7.229031
    33  H    6.366467   6.842261   8.031689   9.108850   8.056649
    34  H    6.246652   6.249935   7.700157   8.442653   7.129331
                   21         22         23         24         25
    21  H    0.000000
    22  H    3.074788   0.000000
    23  H    4.659838   1.781892   0.000000
    24  H    4.200875   1.780263   1.781670   0.000000
    25  H    5.313377   3.774373   3.119325   2.560880   0.000000
    26  H    5.687282   3.756604   2.528344   3.094721   1.784523
    27  H    5.260132   4.329272   3.755821   3.777061   1.780788
    28  S    6.190700   6.406481   6.230775   7.086988   6.188358
    29  O    6.612783   6.531684   6.110348   6.835730   5.443488
    30  O    5.992475   5.801985   5.556279   6.694694   6.239522
    31  C    7.706972   8.144352   7.972817   8.880350   7.911700
    32  H    7.996903   8.678255   8.575426   9.314805   8.158758
    33  H    8.476618   8.576619   8.187444   9.224375   8.154148
    34  H    7.713245   8.323392   8.295750   9.251195   8.549063
                   26         27         28         29         30
    26  H    0.000000
    27  H    1.775538   0.000000
    28  S    5.218416   4.564380   0.000000
    29  O    4.537824   3.702372   1.478967   0.000000
    30  O    5.020962   4.854316   1.482819   2.562726   0.000000
    31  C    6.910832   6.226760   1.795079   2.655116   2.666002
    32  H    7.340416   6.418114   2.374631   2.866527   3.567968
    33  H    6.991631   6.476281   2.335361   2.844270   2.937708
    34  H    7.534776   6.935433   2.375769   3.562762   2.820517
                   31         32         33         34
    31  C    0.000000
    32  H    1.093386   0.000000
    33  H    1.092743   1.798068   0.000000
    34  H    1.089234   1.810226   1.807895   0.000000
 Stoichiometry    C10H18NO3S2(2)
 Framework group  C1[X(C10H18NO3S2)]
 Deg. of freedom    96
 Full point group                 C1      NOp   1
 Largest Abelian subgroup         C1      NOp   1
 Largest concise Abelian subgroup C1      NOp   1
                         Standard orientation:                         
 ---------------------------------------------------------------------
 Center     Atomic      Atomic             Coordinates (Angstroms)
 Number     Number       Type             X           Y           Z
 ---------------------------------------------------------------------
      1          8           0       -3.663371    0.172063    1.050071
      2          7           0       -2.646303    0.052236    0.300110
      3          6           0       -2.174071   -1.261885   -0.179679
      4          6           0       -0.859851   -0.862786   -0.780457
      5          6           0       -0.592351    0.440984   -0.648307
      6          6           0        0.616289    1.120541   -1.190463
      7         16           0        1.951067    1.447391    0.040825
      8          6           0       -1.700137    1.169933    0.086025
      9          6           0       -1.287158    1.745886    1.442300
     10          6           0       -2.374697    2.247561   -0.770530
     11          6           0       -3.148794   -1.820458   -1.220088
     12          6           0       -2.033753   -2.222191    1.006217
     13          1           0       -0.204172   -1.578524   -1.270688
     14          1           0        1.073740    0.534187   -1.988688
     15          1           0        0.392826    2.120044   -1.579462
     16          1           0       -0.758737    1.000154    2.041166
     17          1           0       -0.633114    2.614991    1.313550
     18          1           0       -2.188597    2.057572    1.978329
     19          1           0       -3.288778    2.585315   -0.268351
     20          1           0       -1.717987    3.114983   -0.902380
     21          1           0       -2.643992    1.855933   -1.756098
     22          1           0       -3.237716   -1.143693   -2.078674
     23          1           0       -2.801857   -2.797896   -1.579897
     24          1           0       -4.138039   -1.943851   -0.767758
     25          1           0       -3.006907   -2.329313    1.497208
     26          1           0       -1.698516   -3.205974    0.658101
     27          1           0       -1.308835   -1.847358    1.732739
     28         16           0        2.751677   -0.535801    0.112361
     29          8           0        2.319243   -1.214435    1.353248
     30          8           0        2.497724   -1.171687   -1.202898
     31          6           0        4.508900   -0.195838    0.249842
     32          1           0        4.668355    0.414775    1.142712
     33          1           0        4.984525   -1.173334    0.361052
     34          1           0        4.833000    0.312880   -0.657129
 ---------------------------------------------------------------------
 Rotational constants (GHZ):           0.7708362           0.2775716           0.2437486
 Leave Link  202 at Mon Jun 17 21:33:29 2019, MaxMem=  8053063680 cpu:               0.0 elap:               0.0
 (Enter /data2/g16/g16/l301.exe)
 General basis read from cards:  (6D, 7F)
 Centers:      13     14     15     16     17     18     19     20     21     22
 Centers:      23     24     25     26     27     32     33     34
 6-31G
 S 1 1.00 0.000000000000
     Exponent=  4.0000000000D-01 Coefficients=  1.0000000000D+00
 P 1 1.00 0.000000000000
     Exponent=  7.5000000000D-01 Coefficients=  1.0000000000D+00
 ****
 Centers:       3      4      5      6      8      9     10     11     12     31
 6-31G
 S 1 1.00 0.000000000000
     Exponent=  8.7000000000D+00 Coefficients=  1.0000000000D+00
 P 1 1.00 0.000000000000
     Exponent=  5.0000000000D-02 Coefficients=  1.0000000000D+00
 D 1 1.00
     Exponent=  8.2000000000D-01 Coefficients=  1.0000000000D+00
 ****
 Centers:       2
 6-31G
 S 1 1.00 0.000000000000
     Exponent=  1.3700000000D+01 Coefficients=  1.0000000000D+00
 P 1 1.00 0.000000000000
     Exponent=  5.3000000000D-02 Coefficients=  1.0000000000D+00
 D 1 1.00 0.000000000000
     Exponent=  1.0150000000D+00 Coefficients=  1.0000000000D+00
 ****
 Centers:       1     29     30
 6-31G
 S 1 1.00
     Exponent=  1.6000000000D+01 Coefficients=  1.0000000000D+00
 P 1 1.00 0.000000000000
     Exponent=  6.5000000000D-02 Coefficients=  1.0000000000D+00
 D 1 1.00 0.000000000000
     Exponent=  1.1900000000D+00 Coefficients=  1.0000000000D+00
 D 1 1.00 0.000000000000
     Exponent=  1.8000000000D-01 Coefficients=  1.0000000000D+00
 ****
 Centers:       7     28
 6-31G
 S 1 1.00 0.000000000000
     Exponent=  7.5000000000D+00 Coefficients=  1.0000000000D+00
 P 1 1.00 0.000000000000
     Exponent=  4.1000000000D-02 Coefficients=  1.0000000000D+00
 D 1 1.00 0.000000000000
     Exponent=  4.7900000000D-01 Coefficients=  1.0000000000D+00
 ****
 Ernie: Thresh=  0.10000D-02 Tol=  0.10000D-05 Strict=F.
 There are   438 symmetry adapted cartesian basis functions of A   symmetry.
 There are   438 symmetry adapted basis functions of A   symmetry.
   438 basis functions,   722 primitive gaussians,   438 cartesian basis functions
    71 alpha electrons       70 beta electrons
       nuclear repulsion energy      1521.0827585593 Hartrees.
 IExCor= 1009 DFT=T Ex+Corr=PBE1PBE ExCW=0 ScaHFX=  0.250000
 ScaDFX=  0.750000  0.750000  1.000000  1.000000 ScalE2=  1.000000  1.000000
 IRadAn=      5 IRanWt=     -1 IRanGd=            0 ICorTp=0 IEmpDi=  4
 NAtoms=   34 NActive=   34 NUniq=   34 SFac= 1.00D+00 NAtFMM=   60 NAOKFM=F Big=F
 Integral buffers will be    131072 words long.
 Raffenetti 2 integral format.
 Two-electron integral symmetry is turned on.
 Leave Link  301 at Mon Jun 17 21:33:29 2019, MaxMem=  8053063680 cpu:               0.0 elap:               0.2
 (Enter /data2/g16/g16/l302.exe)
 NPDir=0 NMtPBC=     1 NCelOv=     1 NCel=       1 NClECP=     1 NCelD=      1
         NCelK=      1 NCelE2=     1 NClLst=     1 CellRange=     0.0.
 One-electron integrals computed using PRISM.
 One-electron integral symmetry used in STVInt
 NBasis=   438 RedAO= T EigKep=  6.66D-05  NBF=   438
 NBsUse=   438 1.00D-06 EigRej= -1.00D+00 NBFU=   438
 Precomputing XC quadrature grid using
 IXCGrd= 4 IRadAn=           5 IRanWt=          -1 IRanGd=           0 AccXCQ= 0.00D+00.
 Generated NRdTot=       0 NPtTot=           0 NUsed=           0 NTot=          32
 NSgBfM=   433   433   433   433   433 MxSgAt=    34 MxSgA2=    34.
 Leave Link  302 at Mon Jun 17 21:33:30 2019, MaxMem=  8053063680 cpu:               0.0 elap:               0.5
 (Enter /data2/g16/g16/l303.exe)
 DipDrv:  MaxL=1.
 Leave Link  303 at Mon Jun 17 21:33:30 2019, MaxMem=  8053063680 cpu:               0.0 elap:               0.1
 (Enter /data2/g16/g16/l401.exe)
 ExpMin= 4.10D-02 ExpMax= 2.19D+04 ExpMxC= 3.30D+03 IAcc=3 IRadAn=         5 AccDes= 0.00D+00
 Harris functional with IExCor= 1009 and IRadAn=       5 diagonalized for initial guess.
 HarFok:  IExCor= 1009 AccDes= 0.00D+00 IRadAn=         5 IDoV= 1 UseB2=F ITyADJ=14
 ICtDFT=  3500011 ScaDFX=  1.000000  1.000000  1.000000  1.000000
 FoFCou: FMM=F IPFlag=           0 FMFlag=      100000 FMFlg1=           0
         NFxFlg=           0 DoJE=T BraDBF=F KetDBF=T FulRan=T
         wScrn=  0.000000 ICntrl=       500 IOpCl=  0 I1Cent=   200000004 NGrid=           0
         NMat0=    1 NMatS0=      1 NMatT0=    0 NMatD0=    1 NMtDS0=    0 NMtDT0=    0
 Petite list used in FoFCou.
 Harris En= -1467.69841733449    
 JPrj=0 DoOrth=F DoCkMO=F.
 Initial guess <Sx>= 0.0000 <Sy>= 0.0000 <Sz>= 0.5000 <S**2>= 0.7500 S= 0.5000
 Leave Link  401 at Mon Jun 17 21:33:31 2019, MaxMem=  8053063680 cpu:               0.0 elap:               1.6
 (Enter /data2/g16/g16/l502.exe)
 Integral symmetry usage will be decided dynamically.
 UHF open shell SCF:
 Using DIIS extrapolation, IDIIS=  1040.
 NGot=  8053063680 LenX=  8052670277 LenY=  8052477992
 Requested convergence on RMS density matrix=1.00D-08 within 128 cycles.
 Requested convergence on MAX density matrix=1.00D-06.
 Requested convergence on             energy=1.00D-06.
 No special actions if energy rises.
 Fock matrices will be formed incrementally for  20 cycles.

 Cycle   1  Pass 1  IDiag  1:
 FoFJK:  IHMeth= 1 ICntrl=       0 DoSepK=F KAlg= 0 I1Cent=           0 FoldK=F
 IRaf= 840000000 NMat=       1 IRICut=       1 DoRegI=T DoRafI=F ISym2E= 0 IDoP0=0 IntGTp=1.
 FoFCou: FMM=F IPFlag=           0 FMFlag=      100000 FMFlg1=           0
         NFxFlg=           0 DoJE=F BraDBF=F KetDBF=F FulRan=T
         wScrn=  0.000000 ICntrl=         0 IOpCl=  1 I1Cent=           0 NGrid=           0
         NMat0=    1 NMatS0=      1 NMatT0=    0 NMatD0=    1 NMtDS0=    0 NMtDT0=    0
 Symmetry not used in FoFCou.
 E= -1466.93561312583    
 DIIS: error= 2.53D-02 at cycle   1 NSaved=   1.
 NSaved= 1 IEnMin= 1 EnMin= -1466.93561312583     IErMin= 1 ErrMin= 2.53D-02
 ErrMax= 2.53D-02  0.00D+00 EMaxC= 1.00D-01 BMatC= 2.97D+00 BMatP= 2.97D+00
 IDIUse=3 WtCom= 7.47D-01 WtEn= 2.53D-01
 Coeff-Com:  0.100D+01
 Coeff-En:   0.100D+01
 Coeff:      0.100D+01
 Gap=     0.227 Goal=   None    Shift=    0.000
 Gap=     0.362 Goal=   None    Shift=    0.000
 GapD=    0.227 DampG=1.000 DampE=0.500 DampFc=0.5000 IDamp=-1.
 Damping current iteration by 5.00D-01
 RMSDP=4.75D-03 MaxDP=4.12D-01              OVMax= 3.13D-01

 Cycle   2  Pass 1  IDiag  1:
 RMSU=  2.37D-03    CP:  9.92D-01
 E= -1467.06214833591     Delta-E=       -0.126535210081 Rises=F Damp=T
 DIIS: error= 1.04D-02 at cycle   2 NSaved=   2.
 NSaved= 2 IEnMin= 2 EnMin= -1467.06214833591     IErMin= 2 ErrMin= 1.04D-02
 ErrMax= 1.04D-02  0.00D+00 EMaxC= 1.00D-01 BMatC= 5.22D-01 BMatP= 2.97D+00
 IDIUse=3 WtCom= 8.96D-01 WtEn= 1.04D-01
 Coeff-Com:  0.226D+00 0.774D+00
 Coeff-En:   0.395D+00 0.605D+00
 Coeff:      0.244D+00 0.756D+00
 Gap=     0.129 Goal=   None    Shift=    0.000
 Gap=     0.185 Goal=   None    Shift=    0.000
 RMSDP=1.68D-03 MaxDP=1.19D-01 DE=-1.27D-01 OVMax= 2.88D-01

 Cycle   3  Pass 1  IDiag  1:
 RMSU=  1.39D-03    CP:  9.82D-01  6.10D-01
 E= -1467.46618430624     Delta-E=       -0.404035970331 Rises=F Damp=F
 DIIS: error= 9.45D-03 at cycle   3 NSaved=   3.
 NSaved= 3 IEnMin= 3 EnMin= -1467.46618430624     IErMin= 3 ErrMin= 9.45D-03
 ErrMax= 9.45D-03  0.00D+00 EMaxC= 1.00D-01 BMatC= 3.54D-01 BMatP= 5.22D-01
 IDIUse=3 WtCom= 9.06D-01 WtEn= 9.45D-02
 Coeff-Com:  0.530D-01 0.446D+00 0.501D+00
 Coeff-En:   0.000D+00 0.000D+00 0.100D+01
 Coeff:      0.480D-01 0.403D+00 0.549D+00
 Gap=     0.146 Goal=   None    Shift=    0.000
 Gap=     0.223 Goal=   None    Shift=    0.000
 RMSDP=9.46D-04 MaxDP=6.54D-02 DE=-4.04D-01 OVMax= 1.08D-01

 Cycle   4  Pass 1  IDiag  1:
 RMSU=  6.26D-04    CP:  9.87D-01  7.39D-01  5.42D-01
 E= -1467.53757435360     Delta-E=       -0.071390047364 Rises=F Damp=F
 DIIS: error= 2.87D-03 at cycle   4 NSaved=   4.
 NSaved= 4 IEnMin= 4 EnMin= -1467.53757435360     IErMin= 4 ErrMin= 2.87D-03
 ErrMax= 2.87D-03  0.00D+00 EMaxC= 1.00D-01 BMatC= 4.64D-02 BMatP= 3.54D-01
 IDIUse=3 WtCom= 9.71D-01 WtEn= 2.87D-02
 Coeff-Com: -0.117D-01 0.661D-01 0.285D+00 0.661D+00
 Coeff-En:   0.000D+00 0.000D+00 0.107D+00 0.893D+00
 Coeff:     -0.114D-01 0.642D-01 0.280D+00 0.667D+00
 Gap=     0.145 Goal=   None    Shift=    0.000
 Gap=     0.202 Goal=   None    Shift=    0.000
 RMSDP=3.19D-04 MaxDP=1.83D-02 DE=-7.14D-02 OVMax= 3.32D-02

 Cycle   5  Pass 1  IDiag  1:
 RMSU=  2.00D-04    CP:  9.86D-01  7.23D-01  6.56D-01  7.00D-01
 E= -1467.54728887045     Delta-E=       -0.009714516841 Rises=F Damp=F
 DIIS: error= 7.81D-04 at cycle   5 NSaved=   5.
 NSaved= 5 IEnMin= 5 EnMin= -1467.54728887045     IErMin= 5 ErrMin= 7.81D-04
 ErrMax= 7.81D-04  0.00D+00 EMaxC= 1.00D-01 BMatC= 3.95D-03 BMatP= 4.64D-02
 IDIUse=3 WtCom= 9.92D-01 WtEn= 7.81D-03
 Coeff-Com: -0.853D-02 0.149D-01 0.130D+00 0.370D+00 0.494D+00
 Coeff-En:   0.000D+00 0.000D+00 0.000D+00 0.000D+00 0.100D+01
 Coeff:     -0.846D-02 0.148D-01 0.129D+00 0.367D+00 0.498D+00
 Gap=     0.146 Goal=   None    Shift=    0.000
 Gap=     0.205 Goal=   None    Shift=    0.000
 RMSDP=1.09D-04 MaxDP=5.50D-03 DE=-9.71D-03 OVMax= 1.25D-02

 Cycle   6  Pass 1  IDiag  1:
 RMSU=  6.88D-05    CP:  9.85D-01  7.26D-01  6.52D-01  7.57D-01  6.22D-01
 E= -1467.54814700521     Delta-E=       -0.000858134762 Rises=F Damp=F
 DIIS: error= 2.35D-04 at cycle   6 NSaved=   6.
 NSaved= 6 IEnMin= 6 EnMin= -1467.54814700521     IErMin= 6 ErrMin= 2.35D-04
 ErrMax= 2.35D-04  0.00D+00 EMaxC= 1.00D-01 BMatC= 4.09D-04 BMatP= 3.95D-03
 IDIUse=3 WtCom= 9.98D-01 WtEn= 2.35D-03
 Coeff-Com: -0.284D-02 0.109D-02 0.363D-01 0.116D+00 0.274D+00 0.576D+00
 Coeff-En:   0.000D+00 0.000D+00 0.000D+00 0.000D+00 0.452D-01 0.955D+00
 Coeff:     -0.283D-02 0.109D-02 0.362D-01 0.116D+00 0.273D+00 0.576D+00
 Gap=     0.148 Goal=   None    Shift=    0.000
 Gap=     0.205 Goal=   None    Shift=    0.000
 RMSDP=3.58D-05 MaxDP=2.13D-03 DE=-8.58D-04 OVMax= 5.20D-03

 Cycle   7  Pass 1  IDiag  1:
 RMSU=  2.55D-05    CP:  9.85D-01  7.23D-01  6.58D-01  7.59D-01  6.70D-01
                    CP:  6.99D-01
 E= -1467.54824204423     Delta-E=       -0.000095039022 Rises=F Damp=F
 DIIS: error= 1.25D-04 at cycle   7 NSaved=   7.
 NSaved= 7 IEnMin= 7 EnMin= -1467.54824204423     IErMin= 7 ErrMin= 1.25D-04
 ErrMax= 1.25D-04  0.00D+00 EMaxC= 1.00D-01 BMatC= 6.83D-05 BMatP= 4.09D-04
 IDIUse=3 WtCom= 9.99D-01 WtEn= 1.25D-03
 Coeff-Com: -0.228D-04-0.247D-02-0.267D-02-0.135D-03 0.603D-01 0.330D+00
 Coeff-Com:  0.615D+00
 Coeff-En:   0.000D+00 0.000D+00 0.000D+00 0.000D+00 0.000D+00 0.701D-01
 Coeff-En:   0.930D+00
 Coeff:     -0.227D-04-0.246D-02-0.266D-02-0.135D-03 0.603D-01 0.330D+00
 Coeff:      0.615D+00
 Gap=     0.148 Goal=   None    Shift=    0.000
 Gap=     0.206 Goal=   None    Shift=    0.000
 RMSDP=1.49D-05 MaxDP=9.15D-04 DE=-9.50D-05 OVMax= 1.16D-03

 Cycle   8  Pass 1  IDiag  1:
 RMSU=  1.04D-05    CP:  9.85D-01  7.23D-01  6.58D-01  7.58D-01  7.03D-01
                    CP:  7.97D-01  8.11D-01
 E= -1467.54825854447     Delta-E=       -0.000016500245 Rises=F Damp=F
 DIIS: error= 3.05D-05 at cycle   8 NSaved=   8.
 NSaved= 8 IEnMin= 8 EnMin= -1467.54825854447     IErMin= 8 ErrMin= 3.05D-05
 ErrMax= 3.05D-05  0.00D+00 EMaxC= 1.00D-01 BMatC= 5.09D-06 BMatP= 6.83D-05
 IDIUse=1 WtCom= 1.00D+00 WtEn= 0.00D+00
 Coeff-Com:  0.423D-03-0.115D-02-0.542D-02-0.146D-01-0.156D-01 0.681D-01
 Coeff-Com:  0.221D+00 0.747D+00
 Coeff:      0.423D-03-0.115D-02-0.542D-02-0.146D-01-0.156D-01 0.681D-01
 Coeff:      0.221D+00 0.747D+00
 Gap=     0.148 Goal=   None    Shift=    0.000
 Gap=     0.205 Goal=   None    Shift=    0.000
 RMSDP=5.11D-06 MaxDP=5.36D-04 DE=-1.65D-05 OVMax= 1.27D-03

 Cycle   9  Pass 1  IDiag  1:
 RMSU=  4.23D-06    CP:  9.85D-01  7.23D-01  6.57D-01  7.61D-01  7.03D-01
                    CP:  8.26D-01  8.49D-01  9.25D-01
 E= -1467.54826006463     Delta-E=       -0.000001520156 Rises=F Damp=F
 DIIS: error= 3.11D-05 at cycle   9 NSaved=   9.
 NSaved= 9 IEnMin= 9 EnMin= -1467.54826006463     IErMin= 8 ErrMin= 3.05D-05
 ErrMax= 3.11D-05  0.00D+00 EMaxC= 1.00D-01 BMatC= 3.28D-06 BMatP= 5.09D-06
 IDIUse=1 WtCom= 1.00D+00 WtEn= 0.00D+00
 Coeff-Com:  0.331D-03-0.351D-03-0.303D-02-0.981D-02-0.261D-01-0.268D-01
 Coeff-Com: -0.868D-02 0.494D+00 0.581D+00
 Coeff:      0.331D-03-0.351D-03-0.303D-02-0.981D-02-0.261D-01-0.268D-01
 Coeff:     -0.868D-02 0.494D+00 0.581D+00
 Gap=     0.148 Goal=   None    Shift=    0.000
 Gap=     0.206 Goal=   None    Shift=    0.000
 RMSDP=3.44D-06 MaxDP=2.41D-04 DE=-1.52D-06 OVMax= 2.76D-04

 Cycle  10  Pass 1  IDiag  1:
 RMSU=  2.34D-06    CP:  9.85D-01  7.23D-01  6.57D-01  7.60D-01  7.07D-01
                    CP:  8.44D-01  8.92D-01  1.06D+00  8.53D-01
 E= -1467.54826080850     Delta-E=       -0.000000743873 Rises=F Damp=F
 DIIS: error= 1.35D-05 at cycle  10 NSaved=  10.
 NSaved=10 IEnMin=10 EnMin= -1467.54826080850     IErMin=10 ErrMin= 1.35D-05
 ErrMax= 1.35D-05  0.00D+00 EMaxC= 1.00D-01 BMatC= 5.33D-07 BMatP= 3.28D-06
 IDIUse=1 WtCom= 1.00D+00 WtEn= 0.00D+00
 Coeff-Com:  0.102D-03 0.944D-04-0.154D-03-0.164D-02-0.123D-01-0.323D-01
 Coeff-Com: -0.727D-01 0.113D+00 0.334D+00 0.672D+00
 Coeff:      0.102D-03 0.944D-04-0.154D-03-0.164D-02-0.123D-01-0.323D-01
 Coeff:     -0.727D-01 0.113D+00 0.334D+00 0.672D+00
 Gap=     0.148 Goal=   None    Shift=    0.000
 Gap=     0.206 Goal=   None    Shift=    0.000
 RMSDP=1.66D-06 MaxDP=1.14D-04 DE=-7.44D-07 OVMax= 3.05D-04

 Cycle  11  Pass 1  IDiag  1:
 RMSU=  9.97D-07    CP:  9.85D-01  7.23D-01  6.57D-01  7.60D-01  7.08D-01
                    CP:  8.52D-01  9.01D-01  1.16D+00  9.79D-01  8.60D-01
 E= -1467.54826097036     Delta-E=       -0.000000161859 Rises=F Damp=F
 DIIS: error= 6.51D-06 at cycle  11 NSaved=  11.
 NSaved=11 IEnMin=11 EnMin= -1467.54826097036     IErMin=11 ErrMin= 6.51D-06
 ErrMax= 6.51D-06  0.00D+00 EMaxC= 1.00D-01 BMatC= 1.08D-07 BMatP= 5.33D-07
 IDIUse=1 WtCom= 1.00D+00 WtEn= 0.00D+00
 Coeff-Com:  0.264D-05 0.805D-04 0.456D-03 0.872D-03-0.211D-02-0.105D-01
 Coeff-Com: -0.373D-01-0.198D-01 0.563D-01 0.363D+00 0.649D+00
 Coeff:      0.264D-05 0.805D-04 0.456D-03 0.872D-03-0.211D-02-0.105D-01
 Coeff:     -0.373D-01-0.198D-01 0.563D-01 0.363D+00 0.649D+00
 Gap=     0.148 Goal=   None    Shift=    0.000
 Gap=     0.206 Goal=   None    Shift=    0.000
 RMSDP=6.56D-07 MaxDP=4.73D-05 DE=-1.62D-07 OVMax= 1.22D-04

 Cycle  12  Pass 1  IDiag  1:
 RMSU=  4.45D-07    CP:  9.85D-01  7.23D-01  6.57D-01  7.60D-01  7.07D-01
                    CP:  8.53D-01  8.98D-01  1.17D+00  1.03D+00  1.00D+00
                    CP:  8.08D-01
 E= -1467.54826099743     Delta-E=       -0.000000027065 Rises=F Damp=F
 DIIS: error= 2.67D-06 at cycle  12 NSaved=  12.
 NSaved=12 IEnMin=12 EnMin= -1467.54826099743     IErMin=12 ErrMin= 2.67D-06
 ErrMax= 2.67D-06  0.00D+00 EMaxC= 1.00D-01 BMatC= 2.92D-08 BMatP= 1.08D-07
 IDIUse=1 WtCom= 1.00D+00 WtEn= 0.00D+00
 Coeff-Com: -0.124D-04 0.256D-04 0.316D-03 0.816D-03 0.616D-03-0.134D-02
 Coeff-Com: -0.125D-01-0.337D-01-0.308D-01 0.111D+00 0.414D+00 0.552D+00
 Coeff:     -0.124D-04 0.256D-04 0.316D-03 0.816D-03 0.616D-03-0.134D-02
 Coeff:     -0.125D-01-0.337D-01-0.308D-01 0.111D+00 0.414D+00 0.552D+00
 Gap=     0.148 Goal=   None    Shift=    0.000
 Gap=     0.206 Goal=   None    Shift=    0.000
 RMSDP=3.15D-07 MaxDP=2.30D-05 DE=-2.71D-08 OVMax= 2.78D-05

 Cycle  13  Pass 1  IDiag  1:
 RMSU=  1.95D-07    CP:  9.85D-01  7.23D-01  6.57D-01  7.60D-01  7.08D-01
                    CP:  8.54D-01  8.99D-01  1.18D+00  1.05D+00  1.07D+00
                    CP:  9.26D-01  8.40D-01
 E= -1467.54826100393     Delta-E=       -0.000000006505 Rises=F Damp=F
 DIIS: error= 1.01D-06 at cycle  13 NSaved=  13.
 NSaved=13 IEnMin=13 EnMin= -1467.54826100393     IErMin=13 ErrMin= 1.01D-06
 ErrMax= 1.01D-06  0.00D+00 EMaxC= 1.00D-01 BMatC= 4.34D-09 BMatP= 2.92D-08
 IDIUse=1 WtCom= 1.00D+00 WtEn= 0.00D+00
 Coeff-Com: -0.397D-05-0.103D-04 0.613D-04 0.210D-03 0.922D-03 0.277D-02
 Coeff-Com:  0.381D-02-0.100D-01-0.337D-01-0.346D-01 0.643D-01 0.306D+00
 Coeff-Com:  0.700D+00
 Coeff:     -0.397D-05-0.103D-04 0.613D-04 0.210D-03 0.922D-03 0.277D-02
 Coeff:      0.381D-02-0.100D-01-0.337D-01-0.346D-01 0.643D-01 0.306D+00
 Coeff:      0.700D+00
 Gap=     0.148 Goal=   None    Shift=    0.000
 Gap=     0.206 Goal=   None    Shift=    0.000
 RMSDP=1.29D-07 MaxDP=1.27D-05 DE=-6.50D-09 OVMax= 2.18D-05

 Cycle  14  Pass 1  IDiag  1:
 RMSU=  1.06D-07    CP:  9.85D-01  7.23D-01  6.57D-01  7.60D-01  7.07D-01
                    CP:  8.54D-01  8.99D-01  1.18D+00  1.05D+00  1.08D+00
                    CP:  9.61D-01  8.65D-01  8.40D-01
 E= -1467.54826100504     Delta-E=       -0.000000001105 Rises=F Damp=F
 DIIS: error= 5.29D-07 at cycle  14 NSaved=  14.
 NSaved=14 IEnMin=14 EnMin= -1467.54826100504     IErMin=14 ErrMin= 5.29D-07
 ErrMax= 5.29D-07  0.00D+00 EMaxC= 1.00D-01 BMatC= 8.92D-10 BMatP= 4.34D-09
 IDIUse=1 WtCom= 1.00D+00 WtEn= 0.00D+00
 Coeff-Com:  0.459D-06-0.118D-04-0.287D-04-0.459D-04 0.347D-03 0.166D-02
 Coeff-Com:  0.418D-02 0.154D-02-0.121D-01-0.400D-01-0.540D-01 0.299D-01
 Coeff-Com:  0.372D+00 0.697D+00
 Coeff:      0.459D-06-0.118D-04-0.287D-04-0.459D-04 0.347D-03 0.166D-02
 Coeff:      0.418D-02 0.154D-02-0.121D-01-0.400D-01-0.540D-01 0.299D-01
 Coeff:      0.372D+00 0.697D+00
 Gap=     0.148 Goal=   None    Shift=    0.000
 Gap=     0.206 Goal=   None    Shift=    0.000
 RMSDP=7.42D-08 MaxDP=4.81D-06 DE=-1.11D-09 OVMax= 6.10D-06

 Cycle  15  Pass 1  IDiag  1:
 RMSU=  3.47D-08    CP:  9.85D-01  7.23D-01  6.57D-01  7.60D-01  7.07D-01
                    CP:  8.55D-01  8.99D-01  1.18D+00  1.05D+00  1.09D+00
                    CP:  9.85D-01  9.47D-01  9.82D-01  7.91D-01
 E= -1467.54826100517     Delta-E=       -0.000000000136 Rises=F Damp=F
 DIIS: error= 1.26D-07 at cycle  15 NSaved=  15.
 NSaved=15 IEnMin=15 EnMin= -1467.54826100517     IErMin=15 ErrMin= 1.26D-07
 ErrMax= 1.26D-07  0.00D+00 EMaxC= 1.00D-01 BMatC= 5.93D-11 BMatP= 8.92D-10
 IDIUse=1 WtCom= 1.00D+00 WtEn= 0.00D+00
 Coeff-Com:  0.702D-06-0.210D-05-0.203D-04-0.483D-04-0.102D-04 0.216D-03
 Coeff-Com:  0.878D-03 0.213D-02 0.327D-03-0.798D-02-0.278D-01-0.352D-01
 Coeff-Com:  0.379D-01 0.225D+00 0.805D+00
 Coeff:      0.702D-06-0.210D-05-0.203D-04-0.483D-04-0.102D-04 0.216D-03
 Coeff:      0.878D-03 0.213D-02 0.327D-03-0.798D-02-0.278D-01-0.352D-01
 Coeff:      0.379D-01 0.225D+00 0.805D+00
 Gap=     0.148 Goal=   None    Shift=    0.000
 Gap=     0.206 Goal=   None    Shift=    0.000
 RMSDP=2.00D-08 MaxDP=1.24D-06 DE=-1.36D-10 OVMax= 1.84D-06

 Cycle  16  Pass 1  IDiag  1:
 RMSU=  1.37D-08    CP:  9.85D-01  7.23D-01  6.57D-01  7.60D-01  7.07D-01
                    CP:  8.54D-01  8.99D-01  1.18D+00  1.05D+00  1.09D+00
                    CP:  9.84D-01  9.54D-01  1.02D+00  8.80D-01  9.01D-01
 E= -1467.54826100531     Delta-E=       -0.000000000135 Rises=F Damp=F
 DIIS: error= 4.34D-08 at cycle  16 NSaved=  16.
 NSaved=16 IEnMin=16 EnMin= -1467.54826100531     IErMin=16 ErrMin= 4.34D-08
 ErrMax= 4.34D-08  0.00D+00 EMaxC= 1.00D-01 BMatC= 1.11D-11 BMatP= 5.93D-11
 IDIUse=1 WtCom= 1.00D+00 WtEn= 0.00D+00
 Coeff-Com:  0.779D-07 0.106D-05-0.414D-05-0.115D-04-0.536D-04-0.148D-03
 Coeff-Com: -0.250D-03 0.637D-03 0.178D-02 0.268D-02-0.330D-02-0.192D-01
 Coeff-Com: -0.343D-01-0.164D-01 0.323D+00 0.745D+00
 Coeff:      0.779D-07 0.106D-05-0.414D-05-0.115D-04-0.536D-04-0.148D-03
 Coeff:     -0.250D-03 0.637D-03 0.178D-02 0.268D-02-0.330D-02-0.192D-01
 Coeff:     -0.343D-01-0.164D-01 0.323D+00 0.745D+00
 Gap=     0.148 Goal=   None    Shift=    0.000
 Gap=     0.206 Goal=   None    Shift=    0.000
 RMSDP=7.94D-09 MaxDP=4.34D-07 DE=-1.35D-10 OVMax= 6.95D-07

 SCF Done:  E(UPBE1PBE) =  -1467.54826101     A.U. after   16 cycles
            NFock= 16  Conv=0.79D-08     -V/T= 2.0052
 <Sx>= 0.0000 <Sy>= 0.0000 <Sz>= 0.5000 <S**2>= 0.7550 S= 0.5025
 <L.S>=  0.00000000000    
 KE= 1.459885242738D+03 PE=-6.497574184850D+03 EE= 2.049057922548D+03
 Annihilation of the first spin contaminant:
 S**2 before annihilation     0.7550,   after     0.7500
 Leave Link  502 at Mon Jun 17 21:36:10 2019, MaxMem=  8053063680 cpu:               0.0 elap:             158.1
 (Enter /data2/g16/g16/l601.exe)
 Copying SCF densities to generalized density rwf, IOpCl= 1 IROHF=0.

 **********************************************************************

            Population analysis using the SCF Density.

 **********************************************************************

 Orbital symmetries:
 Alpha Orbitals:
       Occupied  (A) (A) (A) (A) (A) (A) (A) (A) (A) (A) (A) (A)
                 (A) (A) (A) (A) (A) (A) (A) (A) (A) (A) (A) (A)
                 (A) (A) (A) (A) (A) (A) (A) (A) (A) (A) (A) (A)
                 (A) (A) (A) (A) (A) (A) (A) (A) (A) (A) (A) (A)
                 (A) (A) (A) (A) (A) (A) (A) (A) (A) (A) (A) (A)
                 (A) (A) (A) (A) (A) (A) (A) (A) (A) (A) (A)
       Virtual   (A) (A) (A) (A) (A) (A) (A) (A) (A) (A) (A) (A)
                 (A) (A) (A) (A) (A) (A) (A) (A) (A) (A) (A) (A)
                 (A) (A) (A) (A) (A) (A) (A) (A) (A) (A) (A) (A)
                 (A) (A) (A) (A) (A) (A) (A) (A) (A) (A) (A) (A)
                 (A) (A) (A) (A) (A) (A) (A) (A) (A) (A) (A) (A)
                 (A) (A) (A) (A) (A) (A) (A) (A) (A) (A) (A) (A)
                 (A) (A) (A) (A) (A) (A) (A) (A) (A) (A) (A) (A)
                 (A) (A) (A) (A) (A) (A) (A) (A) (A) (A) (A) (A)
                 (A) (A) (A) (A) (A) (A) (A) (A) (A) (A) (A) (A)
                 (A) (A) (A) (A) (A) (A) (A) (A) (A) (A) (A) (A)
                 (A) (A) (A) (A) (A) (A) (A) (A) (A) (A) (A) (A)
                 (A) (A) (A) (A) (A) (A) (A) (A) (A) (A) (A) (A)
                 (A) (A) (A) (A) (A) (A) (A) (A) (A) (A) (A) (A)
                 (A) (A) (A) (A) (A) (A) (A) (A) (A) (A) (A) (A)
                 (A) (A) (A) (A) (A) (A) (A) (A) (A) (A) (A) (A)
                 (A) (A) (A) (A) (A) (A) (A) (A) (A) (A) (A) (A)
                 (A) (A) (A) (A) (A) (A) (A) (A) (A) (A) (A) (A)
                 (A) (A) (A) (A) (A) (A) (A) (A) (A) (A) (A) (A)
                 (A) (A) (A) (A) (A) (A) (A) (A) (A) (A) (A) (A)
                 (A) (A) (A) (A) (A) (A) (A) (A) (A) (A) (A) (A)
                 (A) (A) (A) (A) (A) (A) (A) (A) (A) (A) (A) (A)
                 (A) (A) (A) (A) (A) (A) (A) (A) (A) (A) (A) (A)
                 (A) (A) (A) (A) (A) (A) (A) (A) (A) (A) (A) (A)
                 (A) (A) (A) (A) (A) (A) (A) (A) (A) (A) (A) (A)
                 (A) (A) (A) (A) (A) (A) (A) (A) (A) (A) (A) (A)
                 (A) (A) (A) (A) (A) (A) (A) (A) (A) (A) (A) (A)
                 (A) (A) (A) (A) (A) (A) (A) (A) (A) (A) (A) (A)
                 (A) (A) (A) (A) (A) (A) (A) (A) (A) (A) (A) (A)
                 (A) (A) (A) (A) (A) (A) (A) (A) (A) (A) (A) (A)
                 (A) (A) (A) (A) (A) (A) (A) (A) (A) (A) (A) (A)
                 (A) (A) (A) (A) (A) (A) (A)
 Beta  Orbitals:
       Occupied  (A) (A) (A) (A) (A) (A) (A) (A) (A) (A) (A) (A)
                 (A) (A) (A) (A) (A) (A) (A) (A) (A) (A) (A) (A)
                 (A) (A) (A) (A) (A) (A) (A) (A) (A) (A) (A) (A)
                 (A) (A) (A) (A) (A) (A) (A) (A) (A) (A) (A) (A)
                 (A) (A) (A) (A) (A) (A) (A) (A) (A) (A) (A) (A)
                 (A) (A) (A) (A) (A) (A) (A) (A) (A) (A)
       Virtual   (A) (A) (A) (A) (A) (A) (A) (A) (A) (A) (A) (A)
                 (A) (A) (A) (A) (A) (A) (A) (A) (A) (A) (A) (A)
                 (A) (A) (A) (A) (A) (A) (A) (A) (A) (A) (A) (A)
                 (A) (A) (A) (A) (A) (A) (A) (A) (A) (A) (A) (A)
                 (A) (A) (A) (A) (A) (A) (A) (A) (A) (A) (A) (A)
                 (A) (A) (A) (A) (A) (A) (A) (A) (A) (A) (A) (A)
                 (A) (A) (A) (A) (A) (A) (A) (A) (A) (A) (A) (A)
                 (A) (A) (A) (A) (A) (A) (A) (A) (A) (A) (A) (A)
                 (A) (A) (A) (A) (A) (A) (A) (A) (A) (A) (A) (A)
                 (A) (A) (A) (A) (A) (A) (A) (A) (A) (A) (A) (A)
                 (A) (A) (A) (A) (A) (A) (A) (A) (A) (A) (A) (A)
                 (A) (A) (A) (A) (A) (A) (A) (A) (A) (A) (A) (A)
                 (A) (A) (A) (A) (A) (A) (A) (A) (A) (A) (A) (A)
                 (A) (A) (A) (A) (A) (A) (A) (A) (A) (A) (A) (A)
                 (A) (A) (A) (A) (A) (A) (A) (A) (A) (A) (A) (A)
                 (A) (A) (A) (A) (A) (A) (A) (A) (A) (A) (A) (A)
                 (A) (A) (A) (A) (A) (A) (A) (A) (A) (A) (A) (A)
                 (A) (A) (A) (A) (A) (A) (A) (A) (A) (A) (A) (A)
                 (A) (A) (A) (A) (A) (A) (A) (A) (A) (A) (A) (A)
                 (A) (A) (A) (A) (A) (A) (A) (A) (A) (A) (A) (A)
                 (A) (A) (A) (A) (A) (A) (A) (A) (A) (A) (A) (A)
                 (A) (A) (A) (A) (A) (A) (A) (A) (A) (A) (A) (A)
                 (A) (A) (A) (A) (A) (A) (A) (A) (A) (A) (A) (A)
                 (A) (A) (A) (A) (A) (A) (A) (A) (A) (A) (A) (A)
                 (A) (A) (A) (A) (A) (A) (A) (A) (A) (A) (A) (A)
                 (A) (A) (A) (A) (A) (A) (A) (A) (A) (A) (A) (A)
                 (A) (A) (A) (A) (A) (A) (A) (A) (A) (A) (A) (A)
                 (A) (A) (A) (A) (A) (A) (A) (A) (A) (A) (A) (A)
                 (A) (A) (A) (A) (A) (A) (A) (A) (A) (A) (A) (A)
                 (A) (A) (A) (A) (A) (A) (A) (A) (A) (A) (A) (A)
                 (A) (A) (A) (A) (A) (A) (A) (A)
 The electronic state is 2-A.
 Alpha  occ. eigenvalues --  -89.28800 -89.08189 -19.24751 -19.24218 -19.22658
 Alpha  occ. eigenvalues --  -14.48520 -10.29727 -10.29699 -10.29127 -10.28724
 Alpha  occ. eigenvalues --  -10.26125 -10.24855 -10.23338 -10.22874 -10.22551
 Alpha  occ. eigenvalues --  -10.22307  -8.22120  -8.04432  -6.15842  -6.15798
 Alpha  occ. eigenvalues --   -6.15684  -5.98272  -5.97897  -5.97173  -1.14725
 Alpha  occ. eigenvalues --   -1.13358  -1.04485  -0.93275  -0.85922  -0.84023
 Alpha  occ. eigenvalues --   -0.82241  -0.77236  -0.74918  -0.72101  -0.71229
 Alpha  occ. eigenvalues --   -0.70589  -0.64467  -0.62452  -0.58957  -0.56426
 Alpha  occ. eigenvalues --   -0.53161  -0.51830  -0.51307  -0.50749  -0.50154
 Alpha  occ. eigenvalues --   -0.48511  -0.47397  -0.46358  -0.46173  -0.45119
 Alpha  occ. eigenvalues --   -0.44646  -0.43945  -0.42775  -0.42424  -0.41657
 Alpha  occ. eigenvalues --   -0.40499  -0.40098  -0.39012  -0.38847  -0.36497
 Alpha  occ. eigenvalues --   -0.36357  -0.36191  -0.35747  -0.35656  -0.34532
 Alpha  occ. eigenvalues --   -0.33588  -0.31777  -0.28312  -0.27241  -0.26895
 Alpha  occ. eigenvalues --   -0.20262
 Alpha virt. eigenvalues --   -0.05453  -0.02447   0.00473   0.01074   0.02635
 Alpha virt. eigenvalues --    0.03406   0.03685   0.04590   0.04823   0.04989
 Alpha virt. eigenvalues --    0.05444   0.05800   0.06158   0.06289   0.06850
 Alpha virt. eigenvalues --    0.07845   0.08237   0.08380   0.09042   0.09315
 Alpha virt. eigenvalues --    0.09416   0.09638   0.10370   0.10754   0.11019
 Alpha virt. eigenvalues --    0.11378   0.11817   0.12680   0.13019   0.13697
 Alpha virt. eigenvalues --    0.14030   0.14409   0.14701   0.15004   0.15566
 Alpha virt. eigenvalues --    0.15977   0.16662   0.16763   0.16940   0.17754
 Alpha virt. eigenvalues --    0.18366   0.18715   0.19249   0.19435   0.19645
 Alpha virt. eigenvalues --    0.20021   0.20832   0.21238   0.22052   0.22531
 Alpha virt. eigenvalues --    0.23176   0.23237   0.23947   0.24670   0.25443
 Alpha virt. eigenvalues --    0.26128   0.26326   0.26761   0.27120   0.27724
 Alpha virt. eigenvalues --    0.27909   0.28376   0.29082   0.29208   0.29777
 Alpha virt. eigenvalues --    0.30398   0.30634   0.31470   0.31736   0.31775
 Alpha virt. eigenvalues --    0.32206   0.32953   0.33508   0.34569   0.34982
 Alpha virt. eigenvalues --    0.35569   0.36806   0.37713   0.38150   0.40443
 Alpha virt. eigenvalues --    0.41692   0.41929   0.42170   0.43541   0.44179
 Alpha virt. eigenvalues --    0.46082   0.47083   0.47581   0.48123   0.50208
 Alpha virt. eigenvalues --    0.50670   0.50907   0.51799   0.51953   0.52900
 Alpha virt. eigenvalues --    0.53733   0.54084   0.54655   0.55467   0.56162
 Alpha virt. eigenvalues --    0.57140   0.58142   0.58280   0.59853   0.60570
 Alpha virt. eigenvalues --    0.60987   0.61913   0.62649   0.63159   0.63716
 Alpha virt. eigenvalues --    0.64204   0.64861   0.65319   0.65957   0.66682
 Alpha virt. eigenvalues --    0.67757   0.68155   0.68727   0.70110   0.71063
 Alpha virt. eigenvalues --    0.72081   0.72852   0.73163   0.74033   0.74225
 Alpha virt. eigenvalues --    0.74747   0.75880   0.76449   0.77190   0.78327
 Alpha virt. eigenvalues --    0.79021   0.79756   0.80785   0.81868   0.82180
 Alpha virt. eigenvalues --    0.82573   0.83231   0.83797   0.84880   0.85649
 Alpha virt. eigenvalues --    0.86087   0.87081   0.87935   0.88365   0.88683
 Alpha virt. eigenvalues --    0.89214   0.89827   0.90418   0.90930   0.91158
 Alpha virt. eigenvalues --    0.91504   0.92954   0.94151   0.94812   0.95438
 Alpha virt. eigenvalues --    0.96408   0.97358   0.97905   0.98126   0.99620
 Alpha virt. eigenvalues --    0.99729   1.01907   1.02228   1.03446   1.04511
 Alpha virt. eigenvalues --    1.04617   1.07677   1.08605   1.09145   1.11924
 Alpha virt. eigenvalues --    1.12433   1.14653   1.14958   1.15733   1.16620
 Alpha virt. eigenvalues --    1.18725   1.20183   1.21560   1.22037   1.23576
 Alpha virt. eigenvalues --    1.25431   1.29268   1.30349   1.31697   1.31790
 Alpha virt. eigenvalues --    1.36554   1.37803   1.39612   1.40159   1.41455
 Alpha virt. eigenvalues --    1.44328   1.45467   1.45871   1.48007   1.48780
 Alpha virt. eigenvalues --    1.49116   1.50502   1.51632   1.53053   1.56070
 Alpha virt. eigenvalues --    1.57622   1.59552   1.62483   1.63126   1.63260
 Alpha virt. eigenvalues --    1.65412   1.65807   1.67088   1.68158   1.68454
 Alpha virt. eigenvalues --    1.69570   1.70997   1.72181   1.73205   1.75039
 Alpha virt. eigenvalues --    1.75667   1.76312   1.77707   1.78676   1.79205
 Alpha virt. eigenvalues --    1.79749   1.80558   1.80973   1.81825   1.82555
 Alpha virt. eigenvalues --    1.83780   1.84375   1.85121   1.85858   1.87080
 Alpha virt. eigenvalues --    1.88134   1.89749   1.90928   1.93057   1.94223
 Alpha virt. eigenvalues --    1.95341   1.95874   1.97928   1.98226   1.98811
 Alpha virt. eigenvalues --    1.99488   2.02295   2.03108   2.04303   2.05591
 Alpha virt. eigenvalues --    2.06391   2.07225   2.10456   2.12468   2.13436
 Alpha virt. eigenvalues --    2.14798   2.16281   2.16727   2.23444   2.26004
 Alpha virt. eigenvalues --    2.27909   2.29277   2.31802   2.32923   2.34304
 Alpha virt. eigenvalues --    2.36807   2.38755   2.39412   2.40024   2.41063
 Alpha virt. eigenvalues --    2.42582   2.44905   2.47347   2.48665   2.49734
 Alpha virt. eigenvalues --    2.53665   2.54542   2.54822   2.58172   2.58913
 Alpha virt. eigenvalues --    2.60533   2.63936   2.65267   2.66036   2.67347
 Alpha virt. eigenvalues --    2.70659   2.75121   2.75536   2.77484   2.80805
 Alpha virt. eigenvalues --    2.82455   2.82704   2.83242   2.83390   2.84215
 Alpha virt. eigenvalues --    2.84456   2.85378   2.86586   2.86992   2.88136
 Alpha virt. eigenvalues --    2.88557   2.89594   2.90974   2.93192   2.93492
 Alpha virt. eigenvalues --    2.94627   2.95590   2.96849   2.97809   2.98385
 Alpha virt. eigenvalues --    2.99219   3.02562   3.03378   3.03861   3.06739
 Alpha virt. eigenvalues --    3.08061   3.15642   3.18087   3.19611   3.20305
 Alpha virt. eigenvalues --    3.26174   3.28221   3.29710   3.31235   3.31435
 Alpha virt. eigenvalues --    3.34390   3.35852   3.37420   3.38363   3.41396
 Alpha virt. eigenvalues --    3.41865   3.42949   3.45196   3.48149   3.49774
 Alpha virt. eigenvalues --    3.53773   3.56356   3.59656   3.63481   3.64660
 Alpha virt. eigenvalues --    3.76549   3.93840   4.47150   4.57409   4.62176
 Alpha virt. eigenvalues --    4.64296   4.72438   4.73966   4.74776   4.86508
 Alpha virt. eigenvalues --    4.91263   5.03046   5.44439   5.81797   5.84490
 Alpha virt. eigenvalues --    6.07789  22.21697  22.63387  58.49225  58.49259
 Alpha virt. eigenvalues --   58.50382  58.50650  58.50878  58.55570  58.56028
 Alpha virt. eigenvalues --   58.56370  58.56642  58.56827  95.61697 106.32261
 Alpha virt. eigenvalues --  106.33255 106.39041
  Beta  occ. eigenvalues --  -89.28800 -89.08189 -19.24751 -19.24218 -19.21223
  Beta  occ. eigenvalues --  -14.47336 -10.29728 -10.29699 -10.29189 -10.28786
  Beta  occ. eigenvalues --  -10.26123 -10.24852 -10.23286 -10.22822 -10.22504
  Beta  occ. eigenvalues --  -10.22259  -8.22120  -8.04432  -6.15842  -6.15798
  Beta  occ. eigenvalues --   -6.15684  -5.98272  -5.97897  -5.97173  -1.14725
  Beta  occ. eigenvalues --   -1.10725  -1.04485  -0.92315  -0.85729  -0.83920
  Beta  occ. eigenvalues --   -0.82108  -0.77036  -0.73850  -0.71851  -0.71100
  Beta  occ. eigenvalues --   -0.70138  -0.64414  -0.62324  -0.58578  -0.55918
  Beta  occ. eigenvalues --   -0.53070  -0.51824  -0.51017  -0.50414  -0.48337
  Beta  occ. eigenvalues --   -0.47512  -0.47169  -0.46341  -0.46108  -0.44974
  Beta  occ. eigenvalues --   -0.44248  -0.43790  -0.42499  -0.41644  -0.41187
  Beta  occ. eigenvalues --   -0.40200  -0.40034  -0.38681  -0.37657  -0.36317
  Beta  occ. eigenvalues --   -0.36132  -0.35724  -0.35694  -0.34504  -0.33585
  Beta  occ. eigenvalues --   -0.32651  -0.31772  -0.28233  -0.26716  -0.26010
  Beta virt. eigenvalues --   -0.05454  -0.03918  -0.02411   0.00486   0.01079
  Beta virt. eigenvalues --    0.02656   0.03434   0.03723   0.04630   0.04913
  Beta virt. eigenvalues --    0.05020   0.05469   0.05842   0.06186   0.06314
  Beta virt. eigenvalues --    0.06916   0.07864   0.08297   0.08448   0.09068
  Beta virt. eigenvalues --    0.09356   0.09540   0.09696   0.10414   0.10801
  Beta virt. eigenvalues --    0.11040   0.11438   0.11914   0.12796   0.13106
  Beta virt. eigenvalues --    0.13755   0.14090   0.14448   0.14785   0.15061
  Beta virt. eigenvalues --    0.15902   0.16067   0.16709   0.16979   0.17220
  Beta virt. eigenvalues --    0.17889   0.18416   0.18811   0.19370   0.19618
  Beta virt. eigenvalues --    0.19766   0.20234   0.20986   0.21355   0.22148
  Beta virt. eigenvalues --    0.22707   0.23234   0.23320   0.24106   0.24968
  Beta virt. eigenvalues --    0.25585   0.26235   0.26416   0.26869   0.27228
  Beta virt. eigenvalues --    0.27771   0.28042   0.28514   0.29128   0.29371
  Beta virt. eigenvalues --    0.30138   0.30574   0.31012   0.31600   0.31838
  Beta virt. eigenvalues --    0.32097   0.32506   0.33044   0.33586   0.34639
  Beta virt. eigenvalues --    0.35097   0.35772   0.36843   0.37791   0.38240
  Beta virt. eigenvalues --    0.40484   0.41787   0.41982   0.42586   0.43575
  Beta virt. eigenvalues --    0.44332   0.46154   0.47210   0.47616   0.48161
  Beta virt. eigenvalues --    0.50313   0.50809   0.51011   0.51912   0.52029
  Beta virt. eigenvalues --    0.52944   0.53842   0.54184   0.54827   0.55532
  Beta virt. eigenvalues --    0.56239   0.57234   0.58250   0.58428   0.59951
  Beta virt. eigenvalues --    0.60684   0.61118   0.61944   0.62691   0.63327
  Beta virt. eigenvalues --    0.63876   0.64275   0.64914   0.65489   0.66105
  Beta virt. eigenvalues --    0.66748   0.67811   0.68469   0.68879   0.70351
  Beta virt. eigenvalues --    0.71307   0.72146   0.72964   0.73225   0.74112
  Beta virt. eigenvalues --    0.74460   0.74784   0.76003   0.76503   0.77269
  Beta virt. eigenvalues --    0.78534   0.79111   0.79915   0.80904   0.82063
  Beta virt. eigenvalues --    0.82251   0.82671   0.83300   0.83859   0.84943
  Beta virt. eigenvalues --    0.85726   0.86172   0.87191   0.87967   0.88430
  Beta virt. eigenvalues --    0.88721   0.89251   0.89890   0.90533   0.91027
  Beta virt. eigenvalues --    0.91222   0.91695   0.93097   0.94367   0.94905
  Beta virt. eigenvalues --    0.95507   0.96561   0.97508   0.98014   0.99395
  Beta virt. eigenvalues --    0.99695   0.99878   1.02113   1.02297   1.03578
  Beta virt. eigenvalues --    1.04591   1.04817   1.07732   1.08644   1.09317
  Beta virt. eigenvalues --    1.12338   1.12606   1.14677   1.15024   1.15899
  Beta virt. eigenvalues --    1.16915   1.19036   1.20540   1.22068   1.23126
  Beta virt. eigenvalues --    1.23778   1.25871   1.29758   1.30949   1.31837
  Beta virt. eigenvalues --    1.32468   1.36924   1.38133   1.39668   1.40242
  Beta virt. eigenvalues --    1.41517   1.44362   1.45661   1.46123   1.48170
  Beta virt. eigenvalues --    1.48909   1.49217   1.50559   1.51738   1.53083
  Beta virt. eigenvalues --    1.56249   1.57711   1.59666   1.62520   1.63148
  Beta virt. eigenvalues --    1.63288   1.65744   1.66004   1.67671   1.68332
  Beta virt. eigenvalues --    1.68475   1.69837   1.71056   1.72228   1.73327
  Beta virt. eigenvalues --    1.75128   1.75733   1.76437   1.77742   1.78732
  Beta virt. eigenvalues --    1.79252   1.79826   1.80644   1.81014   1.81889
  Beta virt. eigenvalues --    1.82710   1.83920   1.84448   1.85217   1.86019
  Beta virt. eigenvalues --    1.87214   1.88245   1.89857   1.91159   1.93205
  Beta virt. eigenvalues --    1.94335   1.95352   1.95901   1.98136   1.98393
  Beta virt. eigenvalues --    1.99071   1.99759   2.02596   2.03406   2.04492
  Beta virt. eigenvalues --    2.05939   2.06849   2.07659   2.10802   2.12890
  Beta virt. eigenvalues --    2.13580   2.15121   2.16327   2.17111   2.24260
  Beta virt. eigenvalues --    2.26055   2.28020   2.30415   2.31951   2.33042
  Beta virt. eigenvalues --    2.34427   2.36897   2.38760   2.39414   2.40208
  Beta virt. eigenvalues --    2.41378   2.42847   2.45011   2.47519   2.49177
  Beta virt. eigenvalues --    2.49897   2.53889   2.54906   2.55718   2.58716
  Beta virt. eigenvalues --    2.59028   2.60597   2.64032   2.65373   2.66109
  Beta virt. eigenvalues --    2.68141   2.70823   2.75297   2.75917   2.77668
  Beta virt. eigenvalues --    2.81031   2.82469   2.82735   2.83265   2.84220
  Beta virt. eigenvalues --    2.84390   2.85439   2.85953   2.86972   2.87343
  Beta virt. eigenvalues --    2.88312   2.89683   2.89877   2.91243   2.93251
  Beta virt. eigenvalues --    2.94655   2.95377   2.95914   2.96966   2.98058
  Beta virt. eigenvalues --    2.98441   2.99649   3.02773   3.03863   3.04316
  Beta virt. eigenvalues --    3.06842   3.08172   3.16039   3.19081   3.19820
  Beta virt. eigenvalues --    3.23645   3.26177   3.28223   3.30192   3.31273
  Beta virt. eigenvalues --    3.31525   3.34446   3.35863   3.37464   3.38381
  Beta virt. eigenvalues --    3.41537   3.41949   3.42997   3.45236   3.48276
  Beta virt. eigenvalues --    3.49879   3.53946   3.56394   3.59700   3.63590
  Beta virt. eigenvalues --    3.64677   3.76567   3.95547   4.47222   4.57470
  Beta virt. eigenvalues --    4.62177   4.64416   4.72513   4.74067   4.74883
  Beta virt. eigenvalues --    4.86636   4.91302   5.03051   5.46318   5.81808
  Beta virt. eigenvalues --    5.84490   6.10304  22.21697  22.63388  58.49224
  Beta virt. eigenvalues --   58.49258  58.50363  58.50615  58.50827  58.55617
  Beta virt. eigenvalues --   58.56075  58.56411  58.56683  58.56830  95.62622
  Beta virt. eigenvalues --  106.32262 106.33255 106.40185
          Condensed to atoms (all electrons):
               1          2          3          4          5          6
     1  O    8.661872  -0.007845  -0.086536  -0.001604   0.036652  -0.003843
     2  N   -0.007845   7.336963   0.091108  -0.065899  -0.021247   0.015851
     3  C   -0.086536   0.091108   5.433054   0.244661  -0.096266   0.018169
     4  C   -0.001604  -0.065899   0.244661   5.179560   0.605585  -0.034823
     5  C    0.036652  -0.021247  -0.096266   0.605585   5.386778   0.194000
     6  C   -0.003843   0.015851   0.018169  -0.034823   0.194000   5.228612
     7  S   -0.000750   0.004675   0.000399  -0.002395  -0.127298   0.259141
     8  C   -0.072665   0.070008  -0.140638  -0.051743   0.219857  -0.074234
     9  C   -0.017114  -0.089337   0.006611  -0.003398  -0.062699   0.008197
    10  C   -0.005767  -0.083817   0.017567  -0.009446  -0.081324   0.005612
    11  C   -0.001769  -0.101982   0.313079  -0.053056  -0.011747  -0.002278
    12  C   -0.008917  -0.091851   0.312263  -0.073991   0.000670  -0.001729
    13  H   -0.000762   0.004775  -0.036352   0.406267  -0.050323  -0.001474
    14  H    0.000031  -0.001393   0.002359   0.022272  -0.081260   0.420106
    15  H    0.000143  -0.003599  -0.000037   0.005702  -0.063632   0.407721
    16  H   -0.001609   0.013651  -0.004483   0.004419   0.003366  -0.000911
    17  H   -0.000387   0.007033  -0.000330   0.000961  -0.007030   0.002166
    18  H    0.007382  -0.025430   0.001855  -0.000858   0.008202  -0.000949
    19  H    0.007961  -0.024142  -0.001394  -0.001305   0.018204  -0.001294
    20  H   -0.000673   0.004561  -0.000778   0.001482  -0.002410   0.001815
    21  H   -0.000061   0.006581   0.002146   0.000190  -0.005499   0.003981
    22  H    0.000062   0.004495  -0.052953  -0.007378   0.008232  -0.000689
    23  H   -0.000887   0.007149  -0.046762   0.000955   0.001765  -0.000047
    24  H    0.007340  -0.023660  -0.034105   0.015602  -0.002656   0.000066
    25  H    0.007346  -0.030607  -0.024917   0.015087  -0.001169   0.000016
    26  H   -0.000155   0.009292  -0.047576  -0.002906   0.000066  -0.000028
    27  H   -0.000590   0.010566  -0.061631  -0.003177   0.005253  -0.000496
    28  S   -0.000255   0.000565  -0.001502  -0.031396  -0.003880  -0.004571
    29  O    0.000330   0.002804  -0.002102   0.031929   0.008296   0.004673
    30  O    0.000178  -0.002062  -0.004533   0.024789   0.015737  -0.024540
    31  C    0.000014  -0.000044  -0.000576   0.003492   0.003737  -0.000333
    32  H   -0.000000  -0.000005   0.000031  -0.000148  -0.000372   0.000136
    33  H   -0.000000   0.000003   0.000022   0.000016   0.000036   0.000205
    34  H   -0.000000   0.000001  -0.000026  -0.000541   0.000181  -0.000422
               7          8          9         10         11         12
     1  O   -0.000750  -0.072665  -0.017114  -0.005767  -0.001769  -0.008917
     2  N    0.004675   0.070008  -0.089337  -0.083817  -0.101982  -0.091851
     3  C    0.000399  -0.140638   0.006611   0.017567   0.313079   0.312263
     4  C   -0.002395  -0.051743  -0.003398  -0.009446  -0.053056  -0.073991
     5  C   -0.127298   0.219857  -0.062699  -0.081324  -0.011747   0.000670
     6  C    0.259141  -0.074234   0.008197   0.005612  -0.002278  -0.001729
     7  S   15.864950  -0.004216   0.003931  -0.000515  -0.000237   0.000894
     8  C   -0.004216   5.422534   0.321228   0.325414   0.018598   0.017515
     9  C    0.003931   0.321228   5.007552  -0.084415  -0.005410   0.004710
    10  C   -0.000515   0.325414  -0.084415   5.034015   0.004900  -0.005856
    11  C   -0.000237   0.018598  -0.005410   0.004900   5.034087  -0.080896
    12  C    0.000894   0.017515   0.004710  -0.005856  -0.080896   5.018741
    13  H    0.000009   0.012099  -0.000899  -0.001500  -0.000514   0.002616
    14  H   -0.042049   0.002690   0.000052  -0.001859  -0.000120  -0.000035
    15  H   -0.041275   0.007700  -0.000874   0.005741   0.000313  -0.000068
    16  H    0.000978  -0.064376   0.412692   0.009176   0.000176  -0.001536
    17  H    0.001041  -0.034627   0.400022  -0.004055   0.000137  -0.000128
    18  H   -0.000009  -0.032349   0.412861  -0.003871  -0.000096   0.000080
    19  H    0.000008  -0.040595  -0.002944   0.414998  -0.000346   0.000127
    20  H   -0.000103  -0.038798  -0.003895   0.401201  -0.000073   0.000159
    21  H   -0.001116  -0.056267   0.008334   0.410132  -0.000828  -0.000108
    22  H    0.000013  -0.001112   0.000060  -0.001005   0.410250   0.008288
    23  H    0.000007  -0.001250   0.000176  -0.000078   0.405439  -0.002925
    24  H   -0.000011   0.000419   0.000015  -0.000329   0.411329  -0.003970
    25  H   -0.000032  -0.001953   0.000243  -0.000069  -0.004435   0.410377
    26  H   -0.000004  -0.000678  -0.000133   0.000155  -0.002133   0.406666
    27  H   -0.000052  -0.000263  -0.001655   0.000099   0.009101   0.413118
    28  S    0.310865   0.001723  -0.003171  -0.000205  -0.000950   0.001990
    29  O   -0.075230  -0.006162  -0.000990   0.000066   0.000322  -0.005949
    30  O   -0.083752  -0.002277   0.000691  -0.000068   0.001166   0.000393
    31  C   -0.051983  -0.000860   0.000174   0.000045   0.000061  -0.000181
    32  H   -0.000577   0.000117  -0.000061  -0.000002  -0.000001  -0.000006
    33  H    0.001482  -0.000037  -0.000002   0.000000  -0.000000  -0.000005
    34  H    0.002684   0.000116   0.000004  -0.000000  -0.000000   0.000008
              13         14         15         16         17         18
     1  O   -0.000762   0.000031   0.000143  -0.001609  -0.000387   0.007382
     2  N    0.004775  -0.001393  -0.003599   0.013651   0.007033  -0.025430
     3  C   -0.036352   0.002359  -0.000037  -0.004483  -0.000330   0.001855
     4  C    0.406267   0.022272   0.005702   0.004419   0.000961  -0.000858
     5  C   -0.050323  -0.081260  -0.063632   0.003366  -0.007030   0.008202
     6  C   -0.001474   0.420106   0.407721  -0.000911   0.002166  -0.000949
     7  S    0.000009  -0.042049  -0.041275   0.000978   0.001041  -0.000009
     8  C    0.012099   0.002690   0.007700  -0.064376  -0.034627  -0.032349
     9  C   -0.000899   0.000052  -0.000874   0.412692   0.400022   0.412861
    10  C   -0.001500  -0.001859   0.005741   0.009176  -0.004055  -0.003871
    11  C   -0.000514  -0.000120   0.000313   0.000176   0.000137  -0.000096
    12  C    0.002616  -0.000035  -0.000068  -0.001536  -0.000128   0.000080
    13  H    0.508415   0.002111  -0.000026  -0.000042  -0.000001   0.000004
    14  H    0.002111   0.489214  -0.014213  -0.000033  -0.000017   0.000001
    15  H   -0.000026  -0.014213   0.530573   0.000087  -0.000046   0.000010
    16  H   -0.000042  -0.000033   0.000087   0.537164  -0.019140  -0.014984
    17  H   -0.000001  -0.000017  -0.000046  -0.019140   0.566329  -0.021065
    18  H    0.000004   0.000001   0.000010  -0.014984  -0.021065   0.521210
    19  H    0.000005   0.000003  -0.000033  -0.000006  -0.000250   0.001939
    20  H    0.000002   0.000021  -0.000032   0.000100   0.001229  -0.000160
    21  H   -0.000015  -0.000014  -0.000260  -0.000140   0.000071   0.000029
    22  H    0.000058   0.000005   0.000002  -0.000001   0.000000   0.000000
    23  H    0.000519   0.000001   0.000000  -0.000000  -0.000000   0.000000
    24  H    0.000019   0.000000  -0.000000  -0.000001   0.000000  -0.000002
    25  H   -0.000043  -0.000000   0.000000  -0.000006  -0.000000  -0.000009
    26  H    0.000175  -0.000001   0.000000   0.000008  -0.000000  -0.000000
    27  H   -0.000106  -0.000002   0.000000   0.000314   0.000010  -0.000014
    28  S    0.003558  -0.014426   0.002854  -0.000842  -0.000994   0.000385
    29  O   -0.000349   0.001053  -0.000796  -0.000042   0.000187  -0.000013
    30  O   -0.001068   0.011565  -0.001250   0.000061   0.000019  -0.000010
    31  C   -0.000118   0.000459  -0.000044   0.000032   0.000049  -0.000003
    32  H    0.000000   0.000005  -0.000001  -0.000000  -0.000000   0.000000
    33  H    0.000000  -0.000011   0.000000   0.000000   0.000000  -0.000000
    34  H    0.000001   0.000024  -0.000000   0.000000  -0.000000   0.000000
              19         20         21         22         23         24
     1  O    0.007961  -0.000673  -0.000061   0.000062  -0.000887   0.007340
     2  N   -0.024142   0.004561   0.006581   0.004495   0.007149  -0.023660
     3  C   -0.001394  -0.000778   0.002146  -0.052953  -0.046762  -0.034105
     4  C   -0.001305   0.001482   0.000190  -0.007378   0.000955   0.015602
     5  C    0.018204  -0.002410  -0.005499   0.008232   0.001765  -0.002656
[...]
     8  C    0.205083  -0.034561
     9  C    0.070059   0.022936
    10  C    0.029725   0.020033
    11  C    0.039362   0.020112
    12  C    0.062487   0.023582
    28  S    0.890234  -0.000082
    29  O   -0.511901  -0.000002
    30  O   -0.568621  -0.000027
    31  C    0.149904  -0.000010
 Electronic spatial extent (au):  <R**2>=           4765.5173
 Charge=              0.0000 electrons
 Dipole moment (field-independent basis, Debye):
    X=              4.1568    Y=              1.8393    Z=             -2.2655  Tot=              5.0788
 Quadrupole moment (field-independent basis, Debye-Ang):
   XX=           -107.0697   YY=           -109.0331   ZZ=           -116.4384
   XY=              5.2551   XZ=              7.1733   YZ=             -0.6322
 Traceless Quadrupole moment (field-independent basis, Debye-Ang):
   XX=              3.7773   YY=              1.8139   ZZ=             -5.5913
   XY=              5.2551   XZ=              7.1733   YZ=             -0.6322
 Octapole moment (field-independent basis, Debye-Ang**2):
  XXX=            183.9977  YYY=             -3.7603  ZZZ=              0.1506  XYY=            -13.8355
  XXY=             -8.5609  XXZ=            -10.0524  XZZ=              1.0145  YZZ=              5.9556
  YYZ=             -2.4663  XYZ=              0.5085
 Hexadecapole moment (field-independent basis, Debye-Ang**3):
 XXXX=          -3933.9615 YYYY=          -1372.0537 ZZZZ=           -690.2810 XXXY=            -21.7590
 XXXZ=            128.2959 YYYX=            -17.1236 YYYZ=              0.9813 ZZZX=            -10.2447
 ZZZY=             -2.5753 XXYY=           -931.2075 XXZZ=           -860.6951 YYZZ=           -352.1772
 XXYZ=             -4.0459 YYXZ=             -4.2905 ZZXY=             14.7015
 N-N= 1.521082758559D+03 E-N=-6.497574167256D+03  KE= 1.459885242738D+03
                          Isotropic Fermi Contact Couplings
        Atom                 a.u.       MegaHertz       Gauss      10(-4) cm-1
     1  O(17)              0.08657     -52.48077     -18.72644     -17.50570
     2  N(14)              0.10973      35.45304      12.65053      11.82586
     3  C(13)             -0.01400     -15.73564      -5.61487      -5.24884
     4  C(13)             -0.00003      -0.03534      -0.01261      -0.01179
     5  C(13)             -0.00018      -0.20132      -0.07184      -0.06715
     6  C(13)             -0.00068      -0.76847      -0.27421      -0.25633
     7  S(33)             -0.00003      -0.00998      -0.00356      -0.00333
     8  C(13)             -0.01421     -15.97781      -5.70128      -5.32962
     9  C(13)              0.01171      13.16012       4.69586       4.38974
    10  C(13)              0.01802      20.26314       7.23039       6.75905
    11  C(13)              0.01781      20.02667       7.14601       6.68018
    12  C(13)              0.01207      13.56690       4.84101       4.52543
    13  H(1)              -0.00028      -1.25870      -0.44913      -0.41986
    14  H(1)               0.00003       0.13006       0.04641       0.04338
    15  H(1)               0.00001       0.02385       0.00851       0.00795
    16  H(1)              -0.00040      -1.76765      -0.63074      -0.58963
    17  H(1)               0.00023       1.03582       0.36961       0.34551
    18  H(1)              -0.00052      -2.32337      -0.82904      -0.77499
    19  H(1)              -0.00048      -2.15173      -0.76779      -0.71774
    20  H(1)               0.00039       1.74775       0.62364       0.58299
    21  H(1)              -0.00032      -1.44930      -0.51715      -0.48344
    22  H(1)              -0.00033      -1.46837      -0.52395      -0.48980
    23  H(1)               0.00037       1.64322       0.58634       0.54812
    24  H(1)              -0.00046      -2.07061      -0.73884      -0.69068
    25  H(1)              -0.00051      -2.25996      -0.80641      -0.75384
    26  H(1)               0.00026       1.17195       0.41818       0.39092
    27  H(1)              -0.00040      -1.80188      -0.64295      -0.60104
    28  S(33)              0.00000       0.00068       0.00024       0.00023
    29  O(17)             -0.00001       0.00361       0.00129       0.00120
    30  O(17)             -0.00003       0.01879       0.00671       0.00627
    31  C(13)             -0.00001      -0.00720      -0.00257      -0.00240
    32  H(1)               0.00000       0.00113       0.00040       0.00038
    33  H(1)              -0.00000      -0.00032      -0.00012      -0.00011
    34  H(1)              -0.00000      -0.00059      -0.00021      -0.00020
 --------------------------------------------------------
       Center         ----  Spin Dipole Couplings  ----
                      3XX-RR        3YY-RR        3ZZ-RR
 --------------------------------------------------------
     1   Atom       -0.137251     -0.885816      1.023066
     2   Atom       -0.113132     -0.550630      0.663763
     3   Atom       -0.005399      0.012285     -0.006887
     4   Atom        0.004700     -0.005102      0.000402
     5   Atom        0.008383     -0.007183     -0.001200
     6   Atom        0.002333     -0.001468     -0.000865
     7   Atom        0.002131     -0.001220     -0.000911
     8   Atom        0.003735      0.004976     -0.008711
     9   Atom       -0.010902     -0.001178      0.012080
    10   Atom       -0.010258      0.019888     -0.009630
    11   Atom       -0.001463      0.002754     -0.001291
    12   Atom       -0.016821      0.015186      0.001635
    13   Atom        0.001800     -0.001039     -0.000761
    14   Atom        0.001461     -0.001207     -0.000254
    15   Atom        0.001229     -0.000682     -0.000547
    16   Atom        0.003393     -0.003391     -0.000001
    17   Atom        0.000443      0.001894     -0.002337
    18   Atom       -0.002128      0.004481     -0.002353
    19   Atom       -0.004854      0.009671     -0.004817
    20   Atom       -0.001244      0.003876     -0.002632
    21   Atom       -0.005628      0.000549      0.005079
    22   Atom       -0.005839     -0.002138      0.007977
    23   Atom       -0.002725      0.003614     -0.000889
    24   Atom       -0.001755      0.003819     -0.002064
    25   Atom       -0.004963      0.010141     -0.005178
    26   Atom       -0.002845      0.005384     -0.002539
    27   Atom       -0.000447      0.001862     -0.001415
    28   Atom        0.001419     -0.000723     -0.000696
    29   Atom        0.001462     -0.000686     -0.000776
    30   Atom        0.001033     -0.000588     -0.000445
    31   Atom        0.000661     -0.000329     -0.000332
    32   Atom        0.000619     -0.000311     -0.000308
    33   Atom        0.000519     -0.000249     -0.000269
    34   Atom        0.000552     -0.000285     -0.000266
 --------------------------------------------------------
                        XY            XZ            YZ
 --------------------------------------------------------
     1   Atom       -0.323225      1.396268     -0.496464
     2   Atom       -0.185991      0.790237     -0.296085
     3   Atom       -0.009161     -0.001079      0.006689
     4   Atom       -0.006246     -0.007464      0.002968
     5   Atom        0.002660     -0.007614     -0.001205
     6   Atom        0.001014     -0.001822     -0.000417
     7   Atom        0.000825      0.000437      0.000148
     8   Atom        0.013227     -0.000746     -0.002558
     9   Atom        0.010138      0.007594      0.021244
    10   Atom       -0.010395      0.003889     -0.017531
    11   Atom        0.015039      0.013744      0.018730
    12   Atom       -0.003464     -0.001559     -0.022792
    13   Atom       -0.002823     -0.002832      0.001624
    14   Atom        0.000294     -0.001635     -0.000185
    15   Atom        0.001543     -0.001640     -0.000912
    16   Atom        0.003566      0.007007      0.002030
    17   Atom        0.005270      0.000573      0.001160
    18   Atom        0.006074      0.002214      0.007944
    19   Atom       -0.001709     -0.001113     -0.005153
    20   Atom        0.003304     -0.001016     -0.003054
    21   Atom        0.001175      0.000107     -0.007478
    22   Atom        0.000485      0.002679      0.005403
    23   Atom       -0.000997     -0.000140      0.004603
    24   Atom        0.005475      0.001972      0.006912
    25   Atom       -0.001458     -0.001340     -0.005255
    26   Atom       -0.003426     -0.000675      0.000311
    27   Atom       -0.005871      0.004737     -0.004380
    28   Atom       -0.000215     -0.000165      0.000025
    29   Atom       -0.000556      0.000341     -0.000082
    30   Atom       -0.000411     -0.000559      0.000134
    31   Atom       -0.000043     -0.000045      0.000003
    32   Atom        0.000034      0.000069      0.000003
    33   Atom       -0.000125     -0.000021      0.000003
    34   Atom        0.000020     -0.000130     -0.000002
 --------------------------------------------------------


 ---------------------------------------------------------------------------------
              Anisotropic Spin Dipole Couplings in Principal Axis System
 ---------------------------------------------------------------------------------

       Atom             a.u.   MegaHertz   Gauss  10(-4) cm-1        Axes

              Baa    -1.0698    77.407    27.621    25.820  0.8168 -0.0987 -0.5684
     1 O(17)  Bbb    -1.0037    72.629    25.916    24.226  0.1921  0.9756  0.1066
              Bcc     2.0735  -150.036   -53.537   -50.047  0.5440 -0.1963  0.8158
 
              Baa    -0.6196   -23.897    -8.527    -7.971  0.1805  0.9769  0.1142
     2 N(14)  Bbb    -0.6051   -23.338    -8.327    -7.785  0.8356 -0.0911 -0.5417
              Bcc     1.2247    47.235    16.855    15.756  0.5188 -0.1932  0.8328
 
              Baa    -0.0106    -1.418    -0.506    -0.473  0.6562  0.4421 -0.6115
     3 C(13)  Bbb    -0.0074    -0.988    -0.352    -0.329  0.6612  0.0536  0.7483
              Bcc     0.0179     2.406     0.858     0.802 -0.3636  0.8954  0.2572
 
              Baa    -0.0082    -1.103    -0.393    -0.368  0.4908  0.8617  0.1283
     4 C(13)  Bbb    -0.0047    -0.626    -0.224    -0.209  0.4203 -0.3632  0.8315
              Bcc     0.0129     1.729     0.617     0.577  0.7632 -0.3542 -0.5405
 
              Baa    -0.0076    -1.023    -0.365    -0.341 -0.1736  0.9846 -0.0211
     5 C(13)  Bbb    -0.0054    -0.722    -0.258    -0.241  0.4665  0.1011  0.8787
              Bcc     0.0130     1.745     0.623     0.582  0.8673  0.1427 -0.4769
 
              Baa    -0.0017    -0.234    -0.083    -0.078 -0.4038  0.7885 -0.4640
     6 C(13)  Bbb    -0.0017    -0.223    -0.080    -0.074  0.2145  0.5746  0.7898
              Bcc     0.0034     0.457     0.163     0.152  0.8894  0.2194 -0.4011
 
              Baa    -0.0014    -0.058    -0.021    -0.019 -0.2138  0.9719 -0.0990
     7 S(33)  Bbb    -0.0010    -0.040    -0.014    -0.013 -0.1564  0.0660  0.9855
              Bcc     0.0024     0.098     0.035     0.033  0.9643  0.2261  0.1379
 
              Baa    -0.0101    -1.359    -0.485    -0.453 -0.4660  0.5284  0.7097
     8 C(13)  Bbb    -0.0077    -1.031    -0.368    -0.344  0.5605 -0.4444  0.6989
              Bcc     0.0178     2.390     0.853     0.797  0.6846  0.7234 -0.0890
 
              Baa    -0.0193    -2.595    -0.926    -0.866 -0.5623  0.7417 -0.3656
     9 C(13)  Bbb    -0.0119    -1.594    -0.569    -0.532  0.7787  0.3261 -0.5359
              Bcc     0.0312     4.189     1.495     1.397  0.2783  0.5861  0.7610
 
              Baa    -0.0179    -2.407    -0.859    -0.803  0.1688  0.4523  0.8757
    10 C(13)  Bbb    -0.0131    -1.755    -0.626    -0.585  0.9510  0.1588 -0.2653
              Bcc     0.0310     4.162     1.485     1.388 -0.2591  0.8776 -0.4033
 
              Baa    -0.0181    -2.431    -0.867    -0.811 -0.0320 -0.6548  0.7552
    11 C(13)  Bbb    -0.0139    -1.861    -0.664    -0.621  0.8534 -0.4112 -0.3203
              Bcc     0.0320     4.291     1.531     1.431  0.5202  0.6342  0.5719
 
              Baa    -0.0195    -2.621    -0.935    -0.874  0.7817  0.3949  0.4827
    12 C(13)  Bbb    -0.0127    -1.707    -0.609    -0.570 -0.6225  0.4472  0.6422
              Bcc     0.0323     4.329     1.545     1.444 -0.0377  0.8025 -0.5954
 
              Baa    -0.0028    -1.498    -0.535    -0.500  0.6172  0.7403  0.2665
    13 H(1)   Bbb    -0.0025    -1.328    -0.474    -0.443  0.2293 -0.4933  0.8391
              Bcc     0.0053     2.827     1.009     0.943  0.7526 -0.4568 -0.4742
 
              Baa    -0.0012    -0.666    -0.238    -0.222  0.3571  0.6156  0.7025
    14 H(1)   Bbb    -0.0012    -0.659    -0.235    -0.220 -0.3831  0.7824 -0.4910
              Bcc     0.0025     1.324     0.473     0.442  0.8519  0.0938 -0.5152
 
              Baa    -0.0015    -0.822    -0.293    -0.274 -0.5166  0.8534 -0.0697
    15 H(1)   Bbb    -0.0015    -0.812    -0.290    -0.271  0.3634  0.2923  0.8846
              Bcc     0.0031     1.635     0.583     0.545  0.7753  0.4317 -0.4611
 
              Baa    -0.0058    -3.095    -1.104    -1.032  0.6472 -0.4242 -0.6334
    16 H(1)   Bbb    -0.0043    -2.307    -0.823    -0.770  0.0650  0.8585 -0.5086
              Bcc     0.0101     5.402     1.928     1.802  0.7595  0.2880  0.5833
 
              Baa    -0.0042    -2.248    -0.802    -0.750  0.7258 -0.6618  0.1874
    17 H(1)   Bbb    -0.0024    -1.306    -0.466    -0.436 -0.2317  0.0213  0.9726
              Bcc     0.0067     3.554     1.268     1.186  0.6477  0.7493  0.1378
 
              Baa    -0.0082    -4.357    -1.555    -1.453  0.3605 -0.6141  0.7021
    18 H(1)   Bbb    -0.0043    -2.285    -0.815    -0.762  0.8433 -0.1071 -0.5267
              Bcc     0.0124     6.641     2.370     2.215  0.3986  0.7819  0.4793
 
              Baa    -0.0075    -3.978    -1.420    -1.327  0.5319  0.2922  0.7948
    19 H(1)   Bbb    -0.0040    -2.115    -0.755    -0.705  0.8431 -0.0945 -0.5295
              Bcc     0.0114     6.093     2.174     2.032 -0.0796  0.9517 -0.2966
 
              Baa    -0.0039    -2.079    -0.742    -0.693 -0.1993  0.4307  0.8802
    20 H(1)   Bbb    -0.0027    -1.443    -0.515    -0.481  0.8935 -0.2891  0.3437
              Bcc     0.0066     3.522     1.257     1.175  0.4025  0.8550 -0.3272
 
              Baa    -0.0064    -3.406    -1.215    -1.136  0.8081 -0.4898 -0.3271
    21 H(1)   Bbb    -0.0043    -2.276    -0.812    -0.759  0.5878  0.6350  0.5013
              Bcc     0.0107     5.683     2.028     1.896 -0.0379 -0.5974  0.8011
 
              Baa    -0.0065    -3.443    -1.229    -1.149  0.9433  0.2129 -0.2548
    22 H(1)   Bbb    -0.0043    -2.289    -0.817    -0.764 -0.2920  0.8972 -0.3313
              Bcc     0.0107     5.733     2.046     1.912  0.1581  0.3870  0.9084
 
              Baa    -0.0039    -2.088    -0.745    -0.696 -0.3466 -0.5223  0.7791
    23 H(1)   Bbb    -0.0027    -1.422    -0.507    -0.474  0.9328 -0.1047  0.3448
              Bcc     0.0066     3.509     1.252     1.171 -0.0985  0.8463  0.5235
 
              Baa    -0.0072    -3.838    -1.369    -1.280  0.3727 -0.6192  0.6912
    24 H(1)   Bbb    -0.0037    -1.995    -0.712    -0.665  0.8326 -0.1058 -0.5437
              Bcc     0.0109     5.833     2.081     1.946  0.4098  0.7781  0.4760
 
              Baa    -0.0078    -4.184    -1.493    -1.396  0.5175  0.2784  0.8092
    25 H(1)   Bbb    -0.0040    -2.127    -0.759    -0.710  0.8536 -0.1019 -0.5108
              Bcc     0.0118     6.312     2.252     2.105 -0.0598  0.9550 -0.2904
 
              Baa    -0.0043    -2.268    -0.809    -0.756  0.9021  0.3112  0.2991
    26 H(1)   Bbb    -0.0024    -1.282    -0.458    -0.428 -0.2628 -0.1537  0.9525
              Bcc     0.0067     3.550     1.267     1.184 -0.3424  0.9378  0.0568
 
              Baa    -0.0059    -3.146    -1.123    -1.049  0.7836  0.2798 -0.5547
    27 H(1)   Bbb    -0.0043    -2.306    -0.823    -0.769  0.2302  0.6985  0.6776
              Bcc     0.0102     5.452     1.945     1.819 -0.5771  0.6586 -0.4830
 
              Baa    -0.0007    -0.031    -0.011    -0.010  0.0798  0.9726 -0.2184
    28 S(33)  Bbb    -0.0007    -0.029    -0.010    -0.010  0.0968  0.2105  0.9728
              Bcc     0.0015     0.060     0.021     0.020  0.9921 -0.0988 -0.0773
 
              Baa    -0.0008     0.060     0.021     0.020 -0.1734 -0.1138  0.9783
    29 O(17)  Bbb    -0.0008     0.059     0.021     0.020  0.2127  0.9655  0.1500
              Bcc     0.0016    -0.119    -0.043    -0.040  0.9616 -0.2340  0.1432
 
              Baa    -0.0007     0.050     0.018     0.017  0.2283  0.9735 -0.0137
    30 O(17)  Bbb    -0.0006     0.046     0.016     0.015  0.3046 -0.0580  0.9507
              Bcc     0.0013    -0.095    -0.034    -0.032  0.9247 -0.2212 -0.3098
 
              Baa    -0.0003    -0.045    -0.016    -0.015  0.0349 -0.2129  0.9765
    31 C(13)  Bbb    -0.0003    -0.044    -0.016    -0.015  0.0517  0.9761  0.2110
              Bcc     0.0007     0.089     0.032     0.030  0.9981 -0.0431 -0.0450
 
              Baa    -0.0003    -0.167    -0.060    -0.056 -0.0650 -0.1909  0.9794
    32 H(1)   Bbb    -0.0003    -0.167    -0.059    -0.056 -0.0501  0.9809  0.1879
              Bcc     0.0006     0.334     0.119     0.111  0.9966  0.0368  0.0733
 
              Baa    -0.0003    -0.144    -0.051    -0.048  0.0213 -0.0329  0.9992
    33 H(1)   Bbb    -0.0003    -0.144    -0.051    -0.048  0.1578  0.9870  0.0292
              Bcc     0.0005     0.288     0.103     0.096  0.9872 -0.1571 -0.0262
 
              Baa    -0.0003    -0.153    -0.055    -0.051  0.1439 -0.5110  0.8475
    34 H(1)   Bbb    -0.0003    -0.152    -0.054    -0.051  0.0586  0.8593  0.5082
              Bcc     0.0006     0.305     0.109     0.102  0.9879  0.0235 -0.1536
 

 ---------------------------------------------------------------------------------

 No NMR shielding tensors so no spin-rotation constants.
 Leave Link  601 at Mon Jun 17 21:36:10 2019, MaxMem=  8053063680 cpu:               0.0 elap:               0.3
 (Enter /data2/g16/g16/l9999.exe)
 1\1\GINC-CU01\SP\UPBE1PBE\Gen\C10H18N1O3S2(2)\ROOT\17-Jun-2019\0\\#p g
 en 6d pbe1pbe\\start preoptimized\\0,2\O,0,-3.660782,0.163849,1.059701
 \N,0,-2.645531,0.045669,0.307021\C,0,-2.171433,-1.267829,-0.172632\C,0
 ,-0.859883,-0.866192,-0.777539\C,0,-0.595204,0.438374,-0.647588\C,0,0.
 610245,1.120276,-1.193888\S,0,1.947667,1.451761,0.033285\C,0,-1.702706
 ,1.165435,0.089041\C,0,-1.287336,1.74391,1.443511\C,0,-2.382299,2.2404
 54,-0.766814\C,0,-3.147701,-1.829944,-1.20968\C,0,-2.025442,-2.226464,
 1.013931\H,0,-0.203833,-1.580874,-1.268813\H,0,1.066889,0.534149,-1.99
 2742\H,0,0.383248,2.118795,-1.583368\H,0,-0.755415,1.00014,2.041719\H,
 0,-0.635783,2.614465,1.311961\H,0,-2.188028,2.053991,1.981722\H,0,-3.2
 95792,2.576535,-0.262446\H,0,-1.728085,3.10933,-0.901469\H,0,-2.653398
 ,1.847068,-1.751186\H,0,-3.240685,-1.154358,-2.068764\H,0,-2.799384,-2
 .806933,-1.569376\H,0,-4.135369,-1.955248,-0.754438\H,0,-2.996951,-2.3
 35414,1.50777\H,0,-1.688777,-3.209813,0.665968\H,0,-1.299409,-1.84905,
 1.737999\S,0,2.753323,-0.529388,0.104776\O,0,2.326032,-1.20769,1.34762
 4\O,0,2.497239,-1.167362,-1.209059\C,0,4.510088,-0.18498,0.236946\H,0,
 4.670552,0.427018,1.128687\H,0,4.988413,-1.161187,0.347906\H,0,4.83039
 8,0.323514,-0.671495\\Version=AM64L-G16RevB.01\State=2-A\HF=-1467.5482
 61\S2=0.755009\S2-1=0.\S2A=0.750017\RMSD=7.944e-09\Dipole=1.6311198,0.
 7266225,-0.8967019\Quadrupole=2.8191045,1.3666896,-4.1857941,3.9152003
 ,5.3103731,-0.4741623\PG=C01 [X(C10H18N1O3S2)]\\@


 AND ALL THIS SCIENCE I DON'T UNDERSTAND
 IT'S JUST MY JOB FIVE DAYS A WEEK

                           -- ELTON JOHN, "ROCKET MAN"
 Elapsed time:       0 days  0 hours  2 minutes 41.2 seconds.
 File lengths (MBytes):  RWF=    181 Int=      0 D2E=      0 Chk=     15 Scr=      1
 Normal termination of Gaussian 16 at Mon Jun 17 21:36:10 2019.
