 Entering Gaussian System, Link 0=g16
 AtFile(1): /home/malgo/Basis_sets/n07d_pbe0.gbs
            -H 0
             6-31G
             S   1 1.00       0.000000000000
                  0.4000000000D+00  0.10000000D+01
             P   1 1.00       0.000000000000
                  0.7500000000D+00  0.10000000D+01
             ****
             -He 0
             6-31+G**
             ****
             -Li 0
             6-31+G**
             ****
             -Be 0
             6-31+G**
             ****
             -B 0
             6-31G
             S   1 1.00       0.000000000000
                  0.7000000000D+01  0.1000000000D+01
             P   1 1.00       0.000000000000
                  0.3500000000D-01  0.1000000000D+01
             D   1 1.00
                  0.3430000000D+00  0.1000000000D+01
             ****
             -C 0
             6-31G
             S   1 1.00       0.000000000000
                  0.8700000000D+01  0.1000000000D+01
             P   1 1.00       0.000000000000
                  0.5000000000D-01  0.1000000000D+01
             D   1 1.00
                  0.8200000000D+00  0.1000000000D+01
             ****
             -N 0
             6-31G
             S   1 1.00       0.000000000000
                  0.1370000000D+02  0.1000000000D+01
             P   1 1.00       0.000000000000
                  0.5300000000D-01  0.1000000000D+01
             D   1 1.00       0.000000000000
                  0.1015000000D+01  0.1000000000D+01
             ****
             -O 0
             6-31G
             S   1 1.00
                  0.1600000000D+02  0.1000000000D+01
             P   1 1.00       0.000000000000
                  0.6500000000D-01  0.1000000000D+01
             D   1 1.00        0.000000000000
                  0.1190000000D+01  0.1000000000D+01
             D   1 1.00        0.000000000000
                  0.1800000000D+00  0.1000000000D+01
             ****
             -F 0
             6-31G
             S   1 1.00
                  0.1770000000D+02  0.1000000000D+01
             P   1 1.00       0.000000000000
                  0.8300000000D-01  0.1000000000D+01
             D   1 1.00       0.000000000000
                  1.3700000000D+00  0.1000000000D+01
             D   1 1.00       0.000000000000
                  0.2300000000D+00  0.1000000000D+01
             ****
             -Ne 0
             6-31+G**
             ****
             -Na 0
             6-31+G**
             ****
             -Mg 0
             6-31+G**
             ****
             -Al 0
             6-31G
             S   1 1.00      0.000000000000
                  0.3100000000D+01  0.1000000000D+01
             P   1 1.00      0.000000000000
                  0.1500000000D-01  0.1000000000D+01
             D   1 1.00      0.000000000000
                  0.1890000000D+00  0.1000000000D+01
             ****
             -Si 0
             6-31G
             S   1 1.00      0.000000000000
                  0.5000000000D+01  0.1000000000D+01
             P   1 1.00       0.000000000000
                  0.3300000000D-01  0.1000000000D+01
             D   1 1.0        0.000000000000
                  0.2750000000D+00  0.1000000000D+01
             ****
             -P  0
             6-31G
             S   1 1.00       0.000000000000
                  0.6300000000D+01  0.1000000000D+01
             P   1 1.00       0.000000000000
                  0.3500000000D-01  0.1000000000D+01
             D   1 1.00       0.000000000000
                  0.3730000000D+00  0.1000000000D+01
             ****
             -S  0
             6-31G
             S   1  1.00      0.000000000000
                  0.7500000000D+01  0.1000000000D+01
             P   1 1.00       0.000000000000
                  0.4100000000D-01  0.1000000000D+01
             D   1 1.00       0.000000000000
                  0.4790000000D+00  0.1000000000D+01
             ****
            -Cl 0
             6-31G
             S   1 1.00       0.000000000000
                  0.8500000000D+01  0.1000000000D+01
             P   1 1.00       0.000000000000
                  0.4800000000D-01  0.1000000000D+01
             D   1 1.00       0.000000000000
                  0.6000000000D+00  0.1000000000D+01
             D   1 1.00       0.000000000000
                  0.1960000000D+00  0.1000000000D+01
             ****
            -Br 0
             S   3 1.00       0.000000000000
                  0.4721881000D+01  0.1749732514D+00
                  0.2257555000D+01 -0.7074172290D+00
                  0.3896080000D+00  0.1258999543D+01
             S   1 1.00       0.000000000000
                  0.1471340000D+00  0.1000000000D+01
             P   3 1.00       0.000000000000
                  0.1896942000D+01 -0.2464576731D+00
                  0.9108990000D+00  0.3623179892D+00
                  0.3168550000D+00  0.8338469725D+00
             P   1 1.00       0.000000000000
                  0.1095030000D+00  0.1000000000D+01
             P   1 1.00       0.000000000000
                  0.3609700000D-01  0.1000000000D+01
             D   1 1.00
                  0.4750000000D+00  0.1000000000D+01
             D   1 1.00
                  0.1280000000D+00  0.1000000000D+01
             ****
            -I   0
             S   3 1.00       0.000000000000
                  0.2122765000D+01  0.2063429899D+01
                  0.1770481000D+01 -0.2869526473D+01
                  0.3130840000D+00  0.1404747074D+01
             S   1 1.00       0.000000000000
                  0.1320000000D+00  0.1000000000D+01
             P   3 1.00       0.000000000000
                  0.2432887000D+01  0.7732753148D+00
                  0.2137249000D+01 -0.1020833156D+01
                  0.3145460000D+00  0.1095666871D+01
             P   1 1.00       0.000000000000
                  0.1049450000D+00  0.1000000000D+01
             P   1 1.00       0.000000000000
                  0.3264100000D-01  0.1000000000D+01
             D   1 1.00
                  0.300000000          1.00000000
             D   1 1.00
                  0.090000000          1.00000000
             ****
             -Zn 0
             SP   6 1.00       0.000000000000
                  0.6936492000D+02 -0.4440098182D-02 -0.7689261805D-02
                  0.2362082000D+02  0.7505253308D-01 -0.2997981924D-01
                  0.1018471000D+02  0.2533111104D+00  0.7082410821D-01
                  0.4334082000D+01 -0.2881897118D+00  0.4046140897D+00
                  0.1810918000D+01 -0.7267052298D+00  0.4882324876D+00
                  0.7148410000D+00 -0.2133439088D+00  0.1751969956D+00
             SP   3 1.00       0.000000000000
                  0.2823842000D+01  0.4898545031D-01 -0.1586762981D+00
                  0.1039543000D+01  0.2592794075D+00  0.8379326898D-01
                  0.1432640000D+00 -0.1115711463D+01  0.9840546881D+00
             SP   1 1.00       0.000000000000
                  0.4929600000D-01  0.1000000000D+01  0.1000000000D+01
             S    1 1.00       0.000000000000
                  0.1620000000D+00  0.1000000000D+01
             D    3 1.00       0.000000000000
                  0.3370764000D+02  0.9262647815D-01
                  0.9061106000D+01  0.4002979920D+00
                  0.2738383000D+01  0.6896607863D+00
             D    1 1.00
                  0.2440000000D+01  0.1000000000D+01
             D    1 1.00       0.000000000000
                  0.7302940000D+00  0.1000000000D+01
             D    1 1.00       0.000000000000
                  0.1620000000D+00  0.1000000000D+01
            ****
 Initial command:
 /data2/g16/g16/l1.exe "/tmp/Gau-4438.inp" -scrdir="/tmp/"
 Entering Link 1 = /data2/g16/g16/l1.exe PID=      4439.
  
 Copyright (c) 1988-2017, Gaussian, Inc.  All Rights Reserved.
  
 This is part of the Gaussian(R) 16 program.  It is based on
 the Gaussian(R) 09 system (copyright 2009, Gaussian, Inc.),
 the Gaussian(R) 03 system (copyright 2003, Gaussian, Inc.),
 the Gaussian(R) 98 system (copyright 1998, Gaussian, Inc.),
 the Gaussian(R) 94 system (copyright 1995, Gaussian, Inc.),
 the Gaussian 92(TM) system (copyright 1992, Gaussian, Inc.),
 the Gaussian 90(TM) system (copyright 1990, Gaussian, Inc.),
 the Gaussian 88(TM) system (copyright 1988, Gaussian, Inc.),
 the Gaussian 86(TM) system (copyright 1986, Carnegie Mellon
 University), and the Gaussian 82(TM) system (copyright 1983,
 Carnegie Mellon University). Gaussian is a federally registered
 trademark of Gaussian, Inc.
  
 This software contains proprietary and confidential information,
 including trade secrets, belonging to Gaussian, Inc.
  
 This software is provided under written license and may be
 used, copied, transmitted, or stored only in accord with that
 written license.
  
 The following legend is applicable only to US Government
 contracts under FAR:
  
                    RESTRICTED RIGHTS LEGEND
  
 Use, reproduction and disclosure by the US Government is
 subject to restrictions as set forth in subparagraphs (a)
 and (c) of the Commercial Computer Software - Restricted
 Rights clause in FAR 52.227-19.
  
 Gaussian, Inc.
 340 Quinnipiac St., Bldg. 40, Wallingford CT 06492
  
  
 ---------------------------------------------------------------
 Warning -- This program may not be used in any manner that
 competes with the business of Gaussian, Inc. or will provide
 assistance to any competitor of Gaussian, Inc.  The licensee
 of this program is prohibited from giving any competitor of
 Gaussian, Inc. access to this program.  By using this program,
 the user acknowledges that Gaussian, Inc. is engaged in the
 business of creating and licensing software in the field of
 computational chemistry and represents and warrants to the
 licensee that it is not a competitor of Gaussian, Inc. and that
 it will not use this program in any manner prohibited above.
 ---------------------------------------------------------------
  

 Cite this work as:
 Gaussian 16, Revision B.01,
 M. J. Frisch, G. W. Trucks, H. B. Schlegel, G. E. Scuseria, 
 M. A. Robb, J. R. Cheeseman, G. Scalmani, V. Barone, 
 G. A. Petersson, H. Nakatsuji, X. Li, M. Caricato, A. V. Marenich, 
 J. Bloino, B. G. Janesko, R. Gomperts, B. Mennucci, H. P. Hratchian, 
 J. V. Ortiz, A. F. Izmaylov, J. L. Sonnenberg, D. Williams-Young, 
 F. Ding, F. Lipparini, F. Egidi, J. Goings, B. Peng, A. Petrone, 
 T. Henderson, D. Ranasinghe, V. G. Zakrzewski, J. Gao, N. Rega, 
 G. Zheng, W. Liang, M. Hada, M. Ehara, K. Toyota, R. Fukuda, 
 J. Hasegawa, M. Ishida, T. Nakajima, Y. Honda, O. Kitao, H. Nakai, 
 T. Vreven, K. Throssell, J. A. Montgomery, Jr., J. E. Peralta, 
 F. Ogliaro, M. J. Bearpark, J. J. Heyd, E. N. Brothers, K. N. Kudin, 
 V. N. Staroverov, T. A. Keith, R. Kobayashi, J. Normand, 
 K. Raghavachari, A. P. Rendell, J. C. Burant, S. S. Iyengar, 
 J. Tomasi, M. Cossi, J. M. Millam, M. Klene, C. Adamo, R. Cammi, 
 J. W. Ochterski, R. L. Martin, K. Morokuma, O. Farkas, 
 J. B. Foresman, and D. J. Fox, Gaussian, Inc., Wallingford CT, 2016.
 
 ******************************************
 Gaussian 16:  AM64L-G16RevB.01 20-Dec-2017
                12-Jun-2019 
 ******************************************
 %chk=MTN_PBE0_0.30.chk
 %mem=60GB
 %nprocshared=12
 Will use up to   12 processors via shared memory.
 -----------------
 #p gen 6d pbe1pbe
 -----------------
 1/38=1,172=1/1;
 2/12=2,17=6,18=5,40=1/2;
 3/5=7,8=2,11=2,25=1,30=1,74=-13/1,2,3;
 4//1;
 5/5=2,38=5/2;
 6/7=2,8=2,9=2,10=2,28=1/1;
 99/5=1,9=1/99;
 Leave Link    1 at Wed Jun 12 15:29:14 2019, MaxMem=  8053063680 cpu:               0.0 elap:               0.0
 (Enter /data2/g16/g16/l101.exe)
 ------------------
 start preoptimized
 ------------------
 Symbolic Z-matrix:
 Charge =  0 Multiplicity = 2
 O                    -3.65698   0.16225   1.0667 
 N                    -2.64693   0.04607   0.30422 
 C                    -2.17183  -1.26783  -0.17323 
 C                    -0.85908  -0.86679  -0.77594 
 C                    -0.5948    0.43797  -0.64719 
 C                     0.61045   1.12008  -1.19369 
 S                     1.94787   1.45216   0.03329 
 C                    -1.70311   1.16543   0.08804 
 C                    -1.28934   1.74311   1.44331 
 C                    -2.3807    2.24125  -0.76861 
 C                    -3.1453   -1.83074  -1.21268 
 C                    -2.02944  -2.22526   1.01493 
 H                    -0.20243  -1.58167  -1.26621 
 H                     1.06709   0.53395  -1.99234 
 H                     0.38305   2.1184   -1.58337 
 H                    -0.75882   0.99874   2.04192 
 H                    -0.63698   2.61327   1.31276 
 H                    -2.19063   2.05339   1.98032 
 H                    -3.29499   2.57774  -0.26565 
 H                    -1.72589   3.10993  -0.90187 
 H                    -2.6504    1.84847  -1.75359 
 H                    -3.23589  -1.15576  -2.07276 
 H                    -2.79578  -2.80813  -1.57078 
 H                    -4.13437  -1.95585  -0.76024 
 H                    -3.00255  -2.33281   1.50617 
 H                    -1.69238  -3.20921   0.66877 
 H                    -1.30521  -1.84765   1.7406 
 S                     2.75312  -0.52919   0.10458 
 O                     2.32563  -1.20749   1.34742 
 O                     2.49684  -1.16676  -1.20926 
 C                     4.51009  -0.18558   0.23655 
 H                     4.67095   0.42622   1.12849 
 H                     4.98801  -1.16199   0.34731 
 H                     4.8304    0.32311  -0.6717 
 
 ITRead=  0  0  0  0  0  0  0  0  0  0  0  0  0  0  0  0  0  0  0  0
 ITRead=  0  0  0  0  0  0  0  0  0  0  0  0  0  0
 MicOpt= -1 -1 -1 -1 -1 -1 -1 -1 -1 -1 -1 -1 -1 -1 -1 -1 -1 -1 -1 -1
 MicOpt= -1 -1 -1 -1 -1 -1 -1 -1 -1 -1 -1 -1 -1 -1
 NAtoms=     34 NQM=       34 NQMF=       0 NMMI=      0 NMMIF=      0
                NMic=       0 NMicF=      0.
                    Isotopes and Nuclear Properties:
 (Nuclear quadrupole moments (NQMom) in fm**2, nuclear magnetic moments (NMagM)
  in nuclear magnetons)

  Atom         1           2           3           4           5           6           7           8           9          10
 IAtWgt=          16          14          12          12          12          12          32          12          12          12
 AtmWgt=  15.9949146  14.0030740  12.0000000  12.0000000  12.0000000  12.0000000  31.9720718  12.0000000  12.0000000  12.0000000
 NucSpn=           0           2           0           0           0           0           0           0           0           0
 AtZEff=   0.0000000   0.0000000   0.0000000   0.0000000   0.0000000   0.0000000   0.0000000   0.0000000   0.0000000   0.0000000
 NQMom=    0.0000000   2.0440000   0.0000000   0.0000000   0.0000000   0.0000000   0.0000000   0.0000000   0.0000000   0.0000000
 NMagM=    0.0000000   0.4037610   0.0000000   0.0000000   0.0000000   0.0000000   0.0000000   0.0000000   0.0000000   0.0000000
 AtZNuc=   8.0000000   7.0000000   6.0000000   6.0000000   6.0000000   6.0000000  16.0000000   6.0000000   6.0000000   6.0000000

  Atom        11          12          13          14          15          16          17          18          19          20
 IAtWgt=          12          12           1           1           1           1           1           1           1           1
 AtmWgt=  12.0000000  12.0000000   1.0078250   1.0078250   1.0078250   1.0078250   1.0078250   1.0078250   1.0078250   1.0078250
 NucSpn=           0           0           1           1           1           1           1           1           1           1
 AtZEff=   0.0000000   0.0000000   0.0000000   0.0000000   0.0000000   0.0000000   0.0000000   0.0000000   0.0000000   0.0000000
 NQMom=    0.0000000   0.0000000   0.0000000   0.0000000   0.0000000   0.0000000   0.0000000   0.0000000   0.0000000   0.0000000
 NMagM=    0.0000000   0.0000000   2.7928460   2.7928460   2.7928460   2.7928460   2.7928460   2.7928460   2.7928460   2.7928460
 AtZNuc=   6.0000000   6.0000000   1.0000000   1.0000000   1.0000000   1.0000000   1.0000000   1.0000000   1.0000000   1.0000000

  Atom        21          22          23          24          25          26          27          28          29          30
 IAtWgt=           1           1           1           1           1           1           1          32          16          16
 AtmWgt=   1.0078250   1.0078250   1.0078250   1.0078250   1.0078250   1.0078250   1.0078250  31.9720718  15.9949146  15.9949146
 NucSpn=           1           1           1           1           1           1           1           0           0           0
 AtZEff=   0.0000000   0.0000000   0.0000000   0.0000000   0.0000000   0.0000000   0.0000000   0.0000000   0.0000000   0.0000000
 NQMom=    0.0000000   0.0000000   0.0000000   0.0000000   0.0000000   0.0000000   0.0000000   0.0000000   0.0000000   0.0000000
 NMagM=    2.7928460   2.7928460   2.7928460   2.7928460   2.7928460   2.7928460   2.7928460   0.0000000   0.0000000   0.0000000
 AtZNuc=   1.0000000   1.0000000   1.0000000   1.0000000   1.0000000   1.0000000   1.0000000  16.0000000   8.0000000   8.0000000

  Atom        31          32          33          34
 IAtWgt=          12           1           1           1
 AtmWgt=  12.0000000   1.0078250   1.0078250   1.0078250
 NucSpn=           0           1           1           1
 AtZEff=   0.0000000   0.0000000   0.0000000   0.0000000
 NQMom=    0.0000000   0.0000000   0.0000000   0.0000000
 NMagM=    0.0000000   2.7928460   2.7928460   2.7928460
 AtZNuc=   6.0000000   1.0000000   1.0000000   1.0000000
 Leave Link  101 at Wed Jun 12 15:29:15 2019, MaxMem=  8053063680 cpu:               0.0 elap:               0.1
 (Enter /data2/g16/g16/l202.exe)
                          Input orientation:                          
 ---------------------------------------------------------------------
 Center     Atomic      Atomic             Coordinates (Angstroms)
 Number     Number       Type             X           Y           Z
 ---------------------------------------------------------------------
      1          8           0       -3.656982    0.162249    1.066701
      2          7           0       -2.646931    0.046069    0.304221
      3          6           0       -2.171833   -1.267829   -0.173232
      4          6           0       -0.859083   -0.866792   -0.775939
      5          6           0       -0.594804    0.437974   -0.647188
      6          6           0        0.610445    1.120076   -1.193688
      7         16           0        1.947867    1.452161    0.033285
      8          6           0       -1.703106    1.165435    0.088041
      9          6           0       -1.289336    1.743110    1.443311
     10          6           0       -2.380699    2.241254   -0.768614
     11          6           0       -3.145301   -1.830744   -1.212680
     12          6           0       -2.029442   -2.225264    1.014931
     13          1           0       -0.202433   -1.581674   -1.266213
     14          1           0        1.067089    0.533949   -1.992342
     15          1           0        0.383048    2.118395   -1.583368
     16          1           0       -0.758815    0.998740    2.041919
     17          1           0       -0.636983    2.613265    1.312761
     18          1           0       -2.190628    2.053391    1.980322
     19          1           0       -3.294992    2.577735   -0.265646
     20          1           0       -1.725885    3.109930   -0.901869
     21          1           0       -2.650398    1.848468   -1.753586
     22          1           0       -3.235885   -1.155758   -2.072764
     23          1           0       -2.795784   -2.808133   -1.570776
     24          1           0       -4.134369   -1.955848   -0.760238
     25          1           0       -3.002551   -2.332814    1.506170
     26          1           0       -1.692377   -3.209213    0.668768
     27          1           0       -1.305209   -1.847650    1.740599
     28         16           0        2.753123   -0.529188    0.104576
     29          8           0        2.325632   -1.207490    1.347424
     30          8           0        2.496839   -1.166762   -1.209259
     31          6           0        4.510088   -0.185580    0.236546
     32          1           0        4.670952    0.426218    1.128487
     33          1           0        4.988013   -1.161987    0.347306
     34          1           0        4.830398    0.323114   -0.671695
 ---------------------------------------------------------------------
                    Distance matrix (angstroms):
                    1          2          3          4          5
     1  O    0.000000
     2  N    1.270857   0.000000
     3  C    2.405873   1.476485   0.000000
     4  C    3.504638   2.279575   1.499133   0.000000
     5  C    3.519996   2.295647   2.370953   1.337473   0.000000
     6  C    4.923182   3.742689   3.805850   2.506326   1.488808
     7  S    5.843471   4.812761   4.940944   3.729793   2.820779
     8  C    2.404535   1.480040   2.491735   2.364061   1.515947
     9  C    2.871708   2.453679   3.529556   3.452793   2.560457
    10  C    3.052792   2.457782   3.565357   3.460537   2.540863
    11  C    3.070735   2.464100   1.531328   2.519273   3.460043
    12  C    2.889945   2.458730   1.532543   2.534246   3.451617
    13  H    4.518591   3.330372   2.274125   1.087481   2.148517
    14  H    5.640279   4.393879   4.128702   2.674294   2.140219
    15  H    5.212602   4.127748   4.470169   3.332592   2.157879
    16  H    3.170195   2.737181   3.469993   3.380915   2.751846
    17  H    3.897232   3.412849   4.430218   4.064824   2.928322
    18  H    2.561506   2.654594   3.958365   4.230538   3.472756
    19  H    2.782222   2.674708   4.007292   4.249567   3.466290
    20  H    4.036487   3.419097   4.460331   4.072041   2.912654
    21  H    3.436650   2.735548   3.526734   3.396651   2.727467
    22  H    3.430846   2.727877   2.180135   2.722948   3.398170
    23  H    4.064618   3.418222   2.171401   2.855062   4.029211
    24  H    2.837594   2.711681   2.160901   3.451636   4.274539
    25  H    2.616630   2.688909   2.155151   3.457123   4.255756
    26  H    3.922344   3.411881   2.169750   2.875499   4.029687
    27  H    3.166176   2.729390   2.179445   2.737531   3.380870
    28  S    6.518682   5.434277   4.987781   3.733271   3.564992
    29  O    6.143831   5.233170   4.747971   3.842806   3.900638
    30  O    6.694459   5.497268   4.783311   3.397052   3.528365
    31  C    8.216518   7.161087   6.781390   5.506103   5.218211
    32  H    8.332346   7.373964   7.168541   5.989992   5.557099
    33  H    8.775367   7.730047   7.179523   5.961321   5.892091
    34  H    8.665075   7.545834   7.197972   5.813513   5.426473
                    6          7          8          9         10
     6  C    0.000000
     7  S    1.845113   0.000000
     8  C    2.645261   3.662624   0.000000
     9  C    3.309245   3.542924   1.530252   0.000000
    10  C    3.222525   4.472381   1.533094   2.516313   0.000000
    11  C    4.776330   6.186296   3.570559   4.824036   4.166891
    12  C    4.799823   5.505095   3.530221   4.059465   4.822261
    13  H    2.822319   3.939117   3.410664   4.424598   4.428005
    14  H    1.090833   2.392080   3.521470   4.338032   4.037282
    15  H    1.095537   2.346507   2.837918   3.478289   2.883958
    16  H    3.515501   3.400931   2.176491   1.092644   3.474686
    17  H    3.173007   3.109127   2.175493   1.095344   2.740631
    18  H    4.334908   4.612979   2.146362   1.094067   2.761896
    19  H    4.270652   5.370647   2.157264   2.764017   1.096416
    20  H    3.082712   4.137531   2.182087   2.749298   1.095964
    21  H    3.387792   4.949142   2.180708   3.476168   1.094161
    22  H    4.554827   6.173165   3.522276   4.955328   3.737893
    23  H    5.213005   6.574598   4.442394   5.662854   5.129529
    24  H    5.671195   7.016965   4.046359   5.160633   4.548746
    25  H    5.680266   6.403285   3.992166   4.421788   5.146206
    26  H    5.245424   5.948413   4.413038   5.028704   5.678683
    27  H    4.592077   4.938236   3.459473   3.603081   4.916499
    28  S    2.999438   2.139921   4.767599   4.826699   5.898639
    29  O    3.849244   2.990554   4.842267   4.667251   6.206529
    30  O    2.964516   2.950262   4.976110   5.462472   5.966500
    31  C    4.354024   3.047702   6.360116   6.229723   7.374471
    32  H    4.728811   3.109215   6.500583   6.112148   7.524568
    33  H    5.171612   4.021799   7.089089   7.003280   8.193000
    34  H    4.326156   3.175016   6.631243   6.628784   7.462478
                   11         12         13         14         15
    11  C    0.000000
    12  C    2.522506   0.000000
    13  H    2.953874   2.992622   0.000000
    14  H    4.893248   5.123031   2.571927   0.000000
    15  H    5.308706   5.607017   3.759506   1.773595   0.000000
    16  H    4.928865   3.614332   4.232238   4.452552   3.962346
    17  H    5.693745   5.043710   4.943425   4.260413   3.110132
    18  H    5.117926   4.389174   5.263707   5.357563   4.396353
    19  H    4.511537   5.129356   5.278801   5.117254   3.933874
    20  H    5.149913   5.677197   4.946191   3.952912   2.427999
    21  H    3.751548   4.964430   4.242162   3.950275   3.050185
    22  H    1.097067   3.483276   3.167611   4.623544   4.904718
    23  H    1.098036   2.759148   2.884862   5.125331   5.863089
    24  H    1.094811   2.766682   3.981977   5.896807   6.138734
    25  H    2.768501   1.095365   4.011356   6.084397   6.389115
    26  H    2.747910   1.096174   2.934786   5.357931   6.145154
    27  H    3.479667   1.092566   3.213686   5.023411   5.443205
    28  S    6.182283   5.155419   3.423755   2.893101   3.933968
    29  O    6.072371   4.484761   3.655438   3.971219   4.839906
    30  O    5.681076   5.153122   2.731568   2.355806   3.924325
    31  C    7.963153   6.894320   5.139574   4.164121   5.064864
    32  H    8.465740   7.206839   5.789309   4.768544   5.348247
    33  H    8.308525   7.128882   5.451634   4.870708   5.974455
    34  H    8.279103   7.509750   5.413969   3.993877   4.881916
                   16         17         18         19         20
    16  H    0.000000
    17  H    1.775727   0.000000
    18  H    1.779374   1.781266   0.000000
    19  H    3.774954   3.091544   2.557133   0.000000
    20  H    3.749431   2.517334   3.104720   1.774854   0.000000
    21  H    4.325041   3.747164   3.767685   1.778004   1.780852
    22  H    5.263872   5.693997   5.274344   4.148269   4.674098
    23  H    5.629662   6.508976   6.050696   5.564184   6.051082
    24  H    5.289238   6.116030   5.230946   4.637084   5.610968
    25  H    4.052238   5.486075   4.485848   5.228608   6.087035
    26  H    4.523710   5.952296   5.446414   6.077028   6.511497
    27  H    2.913979   4.530931   4.007437   5.250551   5.633578
    28  S    4.292036   4.777818   5.884625   6.809532   5.858125
    29  O    3.855332   4.834921   5.606292   6.965726   6.333579
    30  O    5.085159   5.519966   6.520365   6.961104   6.017972
    31  C    5.694148   5.956854   7.276905   8.295021   7.144490
    32  H    5.535748   5.743806   7.103140   8.368327   7.228014
    33  H    6.369183   6.842895   8.033572   9.108754   8.055193
    34  H    6.249758   6.251009   7.702068   8.442165   7.127704
                   21         22         23         24         25
    21  H    0.000000
    22  H    3.077344   0.000000
    23  H    4.662455   1.782140   0.000000
    24  H    4.202586   1.780489   1.781901   0.000000
    25  H    5.313487   3.774742   3.120301   2.561195   0.000000
    26  H    5.689090   3.757006   2.528622   3.094561   1.784901
    27  H    5.261193   4.329892   3.756268   3.777570   1.780817
    28  S    6.189027   6.403250   6.228223   7.086664   6.192359
    29  O    6.611809   6.529229   6.107933   6.836219   5.448035
    30  O    5.990155   5.797403   5.553076   6.693071   6.243118
    31  C    7.705228   8.140900   7.969941   8.879981   7.915952
    32  H    7.995705   8.675755   8.573167   9.315321   8.163183
    33  H    8.474781   8.572589   8.183907   9.223596   8.158610
    34  H    7.710999   8.319554   8.292871   9.250327   8.552902
                   26         27         28         29         30
    26  H    0.000000
    27  H    1.775549   0.000000
    28  S    5.221429   4.570008   0.000000
    29  O    4.540029   3.707748   1.479024   0.000000
    30  O    5.024751   4.860128   1.482682   2.562733   0.000000
    31  C    6.913736   6.232362   1.795107   2.655221   2.665754
    32  H    7.343000   6.423368   2.374713   2.866611   3.567830
    33  H    6.994432   6.481978   2.335398   2.844394   2.937493
    34  H    7.537955   6.940969   2.375729   3.562786   2.820320
                   31         32         33         34
    31  C    0.000000
    32  H    1.093496   0.000000
    33  H    1.092726   1.798101   0.000000
    34  H    1.089160   1.810168   1.807963   0.000000
 Stoichiometry    C10H18NO3S2(2)
 Framework group  C1[X(C10H18NO3S2)]
 Deg. of freedom    96
 Full point group                 C1      NOp   1
 Largest Abelian subgroup         C1      NOp   1
 Largest concise Abelian subgroup C1      NOp   1
                         Standard orientation:                         
 ---------------------------------------------------------------------
 Center     Atomic      Atomic             Coordinates (Angstroms)
 Number     Number       Type             X           Y           Z
 ---------------------------------------------------------------------
      1          8           0       -3.659778    0.171017    1.056398
      2          7           0       -2.647747    0.053105    0.296815
      3          6           0       -2.174654   -1.261460   -0.180793
      4          6           0       -0.859053   -0.863141   -0.779070
      5          6           0       -0.591751    0.440773   -0.647953
      6          6           0        0.616916    1.120370   -1.190008
      7         16           0        1.951507    1.447481    0.041375
      8          6           0       -1.700351    1.170253    0.084820
      9          6           0       -1.289148    1.745219    1.442023
     10          6           0       -2.372549    2.248869   -0.772568
     11          6           0       -3.146462   -1.820577   -1.223838
     12          6           0       -2.038341   -2.220687    1.006637
     13          1           0       -0.202805   -1.579153   -1.268232
     14          1           0        1.074424    0.534006   -1.987993
     15          1           0        0.393304    2.119747   -1.579165
     16          1           0       -0.762378    0.998745    2.041323
     17          1           0       -0.634132    2.613818    1.314482
     18          1           0       -2.191236    2.057216    1.976698
     19          1           0       -3.287467    2.587141   -0.271943
     20          1           0       -1.715068    3.115986   -0.902808
     21          1           0       -2.640312    1.857971   -1.758818
     22          1           0       -3.232694   -1.144327   -2.083375
     23          1           0       -2.798428   -2.798449   -1.582060
     24          1           0       -4.137209   -1.943632   -0.774519
     25          1           0       -3.013200   -2.326276    1.494822
     26          1           0       -1.702812   -3.205100    0.660302
     27          1           0       -1.315308   -1.845841    1.734932
     28         16           0        2.751360   -0.536055    0.112696
     29          8           0        2.318361   -1.214723    1.353435
     30          8           0        2.497360   -1.171381   -1.202671
     31          6           0        4.508813   -0.197209    0.250356
     32          1           0        4.668594    0.413097    1.143513
     33          1           0        4.983847   -1.174996    0.361373
     34          1           0        4.833181    0.311732   -0.656305
 ---------------------------------------------------------------------
 Rotational constants (GHZ):           0.7704664           0.2775838           0.2438005
 Leave Link  202 at Wed Jun 12 15:29:15 2019, MaxMem=  8053063680 cpu:               0.0 elap:               0.1
 (Enter /data2/g16/g16/l301.exe)
 General basis read from cards:  (6D, 7F)
 Centers:      13     14     15     16     17     18     19     20     21     22
 Centers:      23     24     25     26     27     32     33     34
 6-31G
 S 1 1.00 0.000000000000
     Exponent=  4.0000000000D-01 Coefficients=  1.0000000000D+00
 P 1 1.00 0.000000000000
     Exponent=  7.5000000000D-01 Coefficients=  1.0000000000D+00
 ****
 Centers:       3      4      5      6      8      9     10     11     12     31
 6-31G
 S 1 1.00 0.000000000000
     Exponent=  8.7000000000D+00 Coefficients=  1.0000000000D+00
 P 1 1.00 0.000000000000
     Exponent=  5.0000000000D-02 Coefficients=  1.0000000000D+00
 D 1 1.00
     Exponent=  8.2000000000D-01 Coefficients=  1.0000000000D+00
 ****
 Centers:       2
 6-31G
 S 1 1.00 0.000000000000
     Exponent=  1.3700000000D+01 Coefficients=  1.0000000000D+00
 P 1 1.00 0.000000000000
     Exponent=  5.3000000000D-02 Coefficients=  1.0000000000D+00
 D 1 1.00 0.000000000000
     Exponent=  1.0150000000D+00 Coefficients=  1.0000000000D+00
 ****
 Centers:       1     29     30
 6-31G
 S 1 1.00
     Exponent=  1.6000000000D+01 Coefficients=  1.0000000000D+00
 P 1 1.00 0.000000000000
     Exponent=  6.5000000000D-02 Coefficients=  1.0000000000D+00
 D 1 1.00 0.000000000000
     Exponent=  1.1900000000D+00 Coefficients=  1.0000000000D+00
 D 1 1.00 0.000000000000
     Exponent=  1.8000000000D-01 Coefficients=  1.0000000000D+00
 ****
 Centers:       7     28
 6-31G
 S 1 1.00 0.000000000000
     Exponent=  7.5000000000D+00 Coefficients=  1.0000000000D+00
 P 1 1.00 0.000000000000
     Exponent=  4.1000000000D-02 Coefficients=  1.0000000000D+00
 D 1 1.00 0.000000000000
     Exponent=  4.7900000000D-01 Coefficients=  1.0000000000D+00
 ****
 Ernie: Thresh=  0.10000D-02 Tol=  0.10000D-05 Strict=F.
 There are   438 symmetry adapted cartesian basis functions of A   symmetry.
 There are   438 symmetry adapted basis functions of A   symmetry.
   438 basis functions,   722 primitive gaussians,   438 cartesian basis functions
    71 alpha electrons       70 beta electrons
       nuclear repulsion energy      1521.0485144031 Hartrees.
 IExCor= 1009 DFT=T Ex+Corr=PBE1PBE ExCW=0 ScaHFX=  0.250000
 ScaDFX=  0.750000  0.750000  1.000000  1.000000 ScalE2=  1.000000  1.000000
 IRadAn=      5 IRanWt=     -1 IRanGd=            0 ICorTp=0 IEmpDi=  4
 NAtoms=   34 NActive=   34 NUniq=   34 SFac= 1.00D+00 NAtFMM=   60 NAOKFM=F Big=F
 Integral buffers will be    131072 words long.
 Raffenetti 2 integral format.
 Two-electron integral symmetry is turned on.
 Leave Link  301 at Wed Jun 12 15:29:15 2019, MaxMem=  8053063680 cpu:               0.0 elap:               0.2
 (Enter /data2/g16/g16/l302.exe)
 NPDir=0 NMtPBC=     1 NCelOv=     1 NCel=       1 NClECP=     1 NCelD=      1
         NCelK=      1 NCelE2=     1 NClLst=     1 CellRange=     0.0.
 One-electron integrals computed using PRISM.
 One-electron integral symmetry used in STVInt
 NBasis=   438 RedAO= T EigKep=  6.66D-05  NBF=   438
 NBsUse=   438 1.00D-06 EigRej= -1.00D+00 NBFU=   438
 Precomputing XC quadrature grid using
 IXCGrd= 4 IRadAn=           5 IRanWt=          -1 IRanGd=           0 AccXCQ= 0.00D+00.
 Generated NRdTot=       0 NPtTot=           0 NUsed=           0 NTot=          32
 NSgBfM=   433   433   433   433   433 MxSgAt=    34 MxSgA2=    34.
 Leave Link  302 at Wed Jun 12 15:29:15 2019, MaxMem=  8053063680 cpu:               0.0 elap:               0.5
 (Enter /data2/g16/g16/l303.exe)
 DipDrv:  MaxL=1.
 Leave Link  303 at Wed Jun 12 15:29:15 2019, MaxMem=  8053063680 cpu:               0.0 elap:               0.1
 (Enter /data2/g16/g16/l401.exe)
 ExpMin= 4.10D-02 ExpMax= 2.19D+04 ExpMxC= 3.30D+03 IAcc=3 IRadAn=         5 AccDes= 0.00D+00
 Harris functional with IExCor= 1009 and IRadAn=       5 diagonalized for initial guess.
 HarFok:  IExCor= 1009 AccDes= 0.00D+00 IRadAn=         5 IDoV= 1 UseB2=F ITyADJ=14
 ICtDFT=  3500011 ScaDFX=  1.000000  1.000000  1.000000  1.000000
 FoFCou: FMM=F IPFlag=           0 FMFlag=      100000 FMFlg1=           0
         NFxFlg=           0 DoJE=T BraDBF=F KetDBF=T FulRan=T
         wScrn=  0.000000 ICntrl=       500 IOpCl=  0 I1Cent=   200000004 NGrid=           0
         NMat0=    1 NMatS0=      1 NMatT0=    0 NMatD0=    1 NMtDS0=    0 NMtDT0=    0
 Petite list used in FoFCou.
 Harris En= -1467.69829463815    
 JPrj=0 DoOrth=F DoCkMO=F.
 Initial guess <Sx>= 0.0000 <Sy>= 0.0000 <Sz>= 0.5000 <S**2>= 0.7500 S= 0.5000
 Leave Link  401 at Wed Jun 12 15:29:17 2019, MaxMem=  8053063680 cpu:               0.0 elap:               1.6
 (Enter /data2/g16/g16/l502.exe)
 Integral symmetry usage will be decided dynamically.
 UHF open shell SCF:
 Using DIIS extrapolation, IDIIS=  1040.
 NGot=  8053063680 LenX=  8052670277 LenY=  8052477992
 Requested convergence on RMS density matrix=1.00D-08 within 128 cycles.
 Requested convergence on MAX density matrix=1.00D-06.
 Requested convergence on             energy=1.00D-06.
 No special actions if energy rises.
 Fock matrices will be formed incrementally for  20 cycles.

 Cycle   1  Pass 1  IDiag  1:
 FoFJK:  IHMeth= 1 ICntrl=       0 DoSepK=F KAlg= 0 I1Cent=           0 FoldK=F
 IRaf= 840000000 NMat=       1 IRICut=       1 DoRegI=T DoRafI=F ISym2E= 0 IDoP0=0 IntGTp=1.
 FoFCou: FMM=F IPFlag=           0 FMFlag=      100000 FMFlg1=           0
         NFxFlg=           0 DoJE=F BraDBF=F KetDBF=F FulRan=T
         wScrn=  0.000000 ICntrl=         0 IOpCl=  1 I1Cent=           0 NGrid=           0
         NMat0=    1 NMatS0=      1 NMatT0=    0 NMatD0=    1 NMtDS0=    0 NMtDT0=    0
 Symmetry not used in FoFCou.
 E= -1466.93554381864    
 DIIS: error= 2.53D-02 at cycle   1 NSaved=   1.
 NSaved= 1 IEnMin= 1 EnMin= -1466.93554381864     IErMin= 1 ErrMin= 2.53D-02
 ErrMax= 2.53D-02  0.00D+00 EMaxC= 1.00D-01 BMatC= 2.97D+00 BMatP= 2.97D+00
 IDIUse=3 WtCom= 7.47D-01 WtEn= 2.53D-01
 Coeff-Com:  0.100D+01
 Coeff-En:   0.100D+01
 Coeff:      0.100D+01
 Gap=     0.227 Goal=   None    Shift=    0.000
 Gap=     0.362 Goal=   None    Shift=    0.000
 GapD=    0.227 DampG=1.000 DampE=0.500 DampFc=0.5000 IDamp=-1.
 Damping current iteration by 5.00D-01
 RMSDP=4.75D-03 MaxDP=4.11D-01              OVMax= 3.13D-01

 Cycle   2  Pass 1  IDiag  1:
 RMSU=  2.37D-03    CP:  9.92D-01
 E= -1467.06199985406     Delta-E=       -0.126456035418 Rises=F Damp=T
 DIIS: error= 1.04D-02 at cycle   2 NSaved=   2.
 NSaved= 2 IEnMin= 2 EnMin= -1467.06199985406     IErMin= 2 ErrMin= 1.04D-02
 ErrMax= 1.04D-02  0.00D+00 EMaxC= 1.00D-01 BMatC= 5.22D-01 BMatP= 2.97D+00
 IDIUse=3 WtCom= 8.96D-01 WtEn= 1.04D-01
 Coeff-Com:  0.226D+00 0.774D+00
 Coeff-En:   0.395D+00 0.605D+00
 Coeff:      0.244D+00 0.756D+00
 Gap=     0.130 Goal=   None    Shift=    0.000
 Gap=     0.185 Goal=   None    Shift=    0.000
 RMSDP=1.68D-03 MaxDP=1.19D-01 DE=-1.26D-01 OVMax= 2.88D-01

 Cycle   3  Pass 1  IDiag  1:
 RMSU=  1.39D-03    CP:  9.82D-01  6.10D-01
 E= -1467.46610510975     Delta-E=       -0.404105255686 Rises=F Damp=F
 DIIS: error= 9.28D-03 at cycle   3 NSaved=   3.
 NSaved= 3 IEnMin= 3 EnMin= -1467.46610510975     IErMin= 3 ErrMin= 9.28D-03
 ErrMax= 9.28D-03  0.00D+00 EMaxC= 1.00D-01 BMatC= 3.54D-01 BMatP= 5.22D-01
 IDIUse=3 WtCom= 9.07D-01 WtEn= 9.28D-02
 Coeff-Com:  0.530D-01 0.445D+00 0.502D+00
 Coeff-En:   0.000D+00 0.000D+00 0.100D+01
 Coeff:      0.481D-01 0.404D+00 0.548D+00
 Gap=     0.146 Goal=   None    Shift=    0.000
 Gap=     0.223 Goal=   None    Shift=    0.000
 RMSDP=9.44D-04 MaxDP=6.52D-02 DE=-4.04D-01 OVMax= 1.08D-01

 Cycle   4  Pass 1  IDiag  1:
 RMSU=  6.25D-04    CP:  9.87D-01  7.39D-01  5.43D-01
 E= -1467.53760236319     Delta-E=       -0.071497253442 Rises=F Damp=F
 DIIS: error= 2.79D-03 at cycle   4 NSaved=   4.
 NSaved= 4 IEnMin= 4 EnMin= -1467.53760236319     IErMin= 4 ErrMin= 2.79D-03
 ErrMax= 2.79D-03  0.00D+00 EMaxC= 1.00D-01 BMatC= 4.58D-02 BMatP= 3.54D-01
 IDIUse=3 WtCom= 9.72D-01 WtEn= 2.79D-02
 Coeff-Com: -0.119D-01 0.664D-01 0.284D+00 0.662D+00
 Coeff-En:   0.000D+00 0.000D+00 0.104D+00 0.896D+00
 Coeff:     -0.116D-01 0.645D-01 0.279D+00 0.668D+00
 Gap=     0.146 Goal=   None    Shift=    0.000
 Gap=     0.202 Goal=   None    Shift=    0.000
 RMSDP=3.17D-04 MaxDP=1.82D-02 DE=-7.15D-02 OVMax= 3.30D-02

 Cycle   5  Pass 1  IDiag  1:
 RMSU=  2.00D-04    CP:  9.86D-01  7.23D-01  6.56D-01  7.00D-01
 E= -1467.54718837364     Delta-E=       -0.009586010455 Rises=F Damp=F
 DIIS: error= 7.76D-04 at cycle   5 NSaved=   5.
 NSaved= 5 IEnMin= 5 EnMin= -1467.54718837364     IErMin= 5 ErrMin= 7.76D-04
 ErrMax= 7.76D-04  0.00D+00 EMaxC= 1.00D-01 BMatC= 3.93D-03 BMatP= 4.58D-02
 IDIUse=3 WtCom= 9.92D-01 WtEn= 7.76D-03
 Coeff-Com: -0.862D-02 0.151D-01 0.129D+00 0.370D+00 0.494D+00
 Coeff-En:   0.000D+00 0.000D+00 0.000D+00 0.000D+00 0.100D+01
 Coeff:     -0.855D-02 0.150D-01 0.128D+00 0.368D+00 0.498D+00
 Gap=     0.146 Goal=   None    Shift=    0.000
 Gap=     0.205 Goal=   None    Shift=    0.000
 RMSDP=1.09D-04 MaxDP=5.50D-03 DE=-9.59D-03 OVMax= 1.25D-02

 Cycle   6  Pass 1  IDiag  1:
 RMSU=  6.87D-05    CP:  9.85D-01  7.26D-01  6.52D-01  7.57D-01  6.22D-01
 E= -1467.54804252433     Delta-E=       -0.000854150687 Rises=F Damp=F
 DIIS: error= 2.32D-04 at cycle   6 NSaved=   6.
 NSaved= 6 IEnMin= 6 EnMin= -1467.54804252433     IErMin= 6 ErrMin= 2.32D-04
 ErrMax= 2.32D-04  0.00D+00 EMaxC= 1.00D-01 BMatC= 4.10D-04 BMatP= 3.93D-03
 IDIUse=3 WtCom= 9.98D-01 WtEn= 2.32D-03
 Coeff-Com: -0.287D-02 0.116D-02 0.362D-01 0.116D+00 0.274D+00 0.575D+00
 Coeff-En:   0.000D+00 0.000D+00 0.000D+00 0.000D+00 0.459D-01 0.954D+00
 Coeff:     -0.287D-02 0.116D-02 0.361D-01 0.116D+00 0.274D+00 0.576D+00
 Gap=     0.148 Goal=   None    Shift=    0.000
 Gap=     0.205 Goal=   None    Shift=    0.000
 RMSDP=3.58D-05 MaxDP=2.11D-03 DE=-8.54D-04 OVMax= 5.20D-03

 Cycle   7  Pass 1  IDiag  1:
 RMSU=  2.55D-05    CP:  9.85D-01  7.23D-01  6.58D-01  7.59D-01  6.69D-01
                    CP:  6.99D-01
 E= -1467.54813767739     Delta-E=       -0.000095153064 Rises=F Damp=F
 DIIS: error= 1.25D-04 at cycle   7 NSaved=   7.
 NSaved= 7 IEnMin= 7 EnMin= -1467.54813767739     IErMin= 7 ErrMin= 1.25D-04
 ErrMax= 1.25D-04  0.00D+00 EMaxC= 1.00D-01 BMatC= 6.87D-05 BMatP= 4.10D-04
 IDIUse=3 WtCom= 9.99D-01 WtEn= 1.25D-03
 Coeff-Com: -0.242D-04-0.247D-02-0.267D-02-0.143D-03 0.606D-01 0.330D+00
 Coeff-Com:  0.615D+00
 Coeff-En:   0.000D+00 0.000D+00 0.000D+00 0.000D+00 0.000D+00 0.701D-01
 Coeff-En:   0.930D+00
 Coeff:     -0.242D-04-0.247D-02-0.266D-02-0.142D-03 0.605D-01 0.330D+00
 Coeff:      0.615D+00
 Gap=     0.149 Goal=   None    Shift=    0.000
 Gap=     0.206 Goal=   None    Shift=    0.000
 RMSDP=1.49D-05 MaxDP=9.15D-04 DE=-9.52D-05 OVMax= 1.16D-03

 Cycle   8  Pass 1  IDiag  1:
 RMSU=  1.04D-05    CP:  9.85D-01  7.23D-01  6.58D-01  7.59D-01  7.03D-01
                    CP:  7.97D-01  8.12D-01
 E= -1467.54815424176     Delta-E=       -0.000016564363 Rises=F Damp=F
 DIIS: error= 3.05D-05 at cycle   8 NSaved=   8.
 NSaved= 8 IEnMin= 8 EnMin= -1467.54815424176     IErMin= 8 ErrMin= 3.05D-05
 ErrMax= 3.05D-05  0.00D+00 EMaxC= 1.00D-01 BMatC= 5.22D-06 BMatP= 6.87D-05
 IDIUse=1 WtCom= 1.00D+00 WtEn= 0.00D+00
 Coeff-Com:  0.429D-03-0.118D-02-0.543D-02-0.147D-01-0.155D-01 0.693D-01
 Coeff-Com:  0.223D+00 0.744D+00
 Coeff:      0.429D-03-0.118D-02-0.543D-02-0.147D-01-0.155D-01 0.693D-01
 Coeff:      0.223D+00 0.744D+00
 Gap=     0.148 Goal=   None    Shift=    0.000
 Gap=     0.205 Goal=   None    Shift=    0.000
 RMSDP=5.15D-06 MaxDP=5.35D-04 DE=-1.66D-05 OVMax= 1.28D-03

 Cycle   9  Pass 1  IDiag  1:
 RMSU=  4.28D-06    CP:  9.85D-01  7.23D-01  6.57D-01  7.61D-01  7.03D-01
                    CP:  8.27D-01  8.50D-01  9.26D-01
 E= -1467.54815578042     Delta-E=       -0.000001538662 Rises=F Damp=F
 DIIS: error= 3.23D-05 at cycle   9 NSaved=   9.
 NSaved= 9 IEnMin= 9 EnMin= -1467.54815578042     IErMin= 8 ErrMin= 3.05D-05
 ErrMax= 3.23D-05  0.00D+00 EMaxC= 1.00D-01 BMatC= 3.42D-06 BMatP= 5.22D-06
 IDIUse=1 WtCom= 1.00D+00 WtEn= 0.00D+00
 Coeff-Com:  0.339D-03-0.366D-03-0.306D-02-0.997D-02-0.263D-01-0.267D-01
 Coeff-Com: -0.747D-02 0.496D+00 0.577D+00
 Coeff:      0.339D-03-0.366D-03-0.306D-02-0.997D-02-0.263D-01-0.267D-01
 Coeff:     -0.747D-02 0.496D+00 0.577D+00
 Gap=     0.149 Goal=   None    Shift=    0.000
 Gap=     0.206 Goal=   None    Shift=    0.000
 RMSDP=3.47D-06 MaxDP=2.40D-04 DE=-1.54D-06 OVMax= 2.83D-04

 Cycle  10  Pass 1  IDiag  1:
 RMSU=  2.36D-06    CP:  9.85D-01  7.23D-01  6.57D-01  7.61D-01  7.07D-01
                    CP:  8.45D-01  8.94D-01  1.06D+00  8.48D-01
 E= -1467.54815655905     Delta-E=       -0.000000778633 Rises=F Damp=F
 DIIS: error= 1.32D-05 at cycle  10 NSaved=  10.
 NSaved=10 IEnMin=10 EnMin= -1467.54815655905     IErMin=10 ErrMin= 1.32D-05
 ErrMax= 1.32D-05  0.00D+00 EMaxC= 1.00D-01 BMatC= 5.39D-07 BMatP= 3.42D-06
 IDIUse=1 WtCom= 1.00D+00 WtEn= 0.00D+00
 Coeff-Com:  0.105D-03 0.924D-04-0.156D-03-0.167D-02-0.124D-01-0.327D-01
 Coeff-Com: -0.734D-01 0.113D+00 0.330D+00 0.677D+00
 Coeff:      0.105D-03 0.924D-04-0.156D-03-0.167D-02-0.124D-01-0.327D-01
 Coeff:     -0.734D-01 0.113D+00 0.330D+00 0.677D+00
 Gap=     0.149 Goal=   None    Shift=    0.000
 Gap=     0.206 Goal=   None    Shift=    0.000
 RMSDP=1.70D-06 MaxDP=1.13D-04 DE=-7.79D-07 OVMax= 3.07D-04

 Cycle  11  Pass 1  IDiag  1:
 RMSU=  1.01D-06    CP:  9.85D-01  7.23D-01  6.57D-01  7.60D-01  7.08D-01
                    CP:  8.52D-01  9.02D-01  1.16D+00  9.75D-01  8.66D-01
 E= -1467.54815672407     Delta-E=       -0.000000165016 Rises=F Damp=F
 DIIS: error= 6.43D-06 at cycle  11 NSaved=  11.
 NSaved=11 IEnMin=11 EnMin= -1467.54815672407     IErMin=11 ErrMin= 6.43D-06
 ErrMax= 6.43D-06  0.00D+00 EMaxC= 1.00D-01 BMatC= 1.09D-07 BMatP= 5.39D-07
 IDIUse=1 WtCom= 1.00D+00 WtEn= 0.00D+00
 Coeff-Com:  0.285D-05 0.815D-04 0.459D-03 0.880D-03-0.214D-02-0.106D-01
 Coeff-Com: -0.375D-01-0.192D-01 0.550D-01 0.363D+00 0.650D+00
 Coeff:      0.285D-05 0.815D-04 0.459D-03 0.880D-03-0.214D-02-0.106D-01
 Coeff:     -0.375D-01-0.192D-01 0.550D-01 0.363D+00 0.650D+00
 Gap=     0.149 Goal=   None    Shift=    0.000
 Gap=     0.206 Goal=   None    Shift=    0.000
 RMSDP=6.60D-07 MaxDP=4.84D-05 DE=-1.65D-07 OVMax= 1.26D-04

 Cycle  12  Pass 1  IDiag  1:
 RMSU=  4.48D-07    CP:  9.85D-01  7.23D-01  6.57D-01  7.60D-01  7.07D-01
                    CP:  8.54D-01  9.00D-01  1.17D+00  1.02D+00  1.01D+00
                    CP:  8.08D-01
 E= -1467.54815675154     Delta-E=       -0.000000027468 Rises=F Damp=F
 DIIS: error= 2.71D-06 at cycle  12 NSaved=  12.
 NSaved=12 IEnMin=12 EnMin= -1467.54815675154     IErMin=12 ErrMin= 2.71D-06
 ErrMax= 2.71D-06  0.00D+00 EMaxC= 1.00D-01 BMatC= 3.04D-08 BMatP= 1.09D-07
 IDIUse=1 WtCom= 1.00D+00 WtEn= 0.00D+00
 Coeff-Com: -0.128D-04 0.264D-04 0.321D-03 0.831D-03 0.634D-03-0.135D-02
 Coeff-Com: -0.126D-01-0.338D-01-0.312D-01 0.110D+00 0.416D+00 0.551D+00
 Coeff:     -0.128D-04 0.264D-04 0.321D-03 0.831D-03 0.634D-03-0.135D-02
 Coeff:     -0.126D-01-0.338D-01-0.312D-01 0.110D+00 0.416D+00 0.551D+00
 Gap=     0.149 Goal=   None    Shift=    0.000
 Gap=     0.206 Goal=   None    Shift=    0.000
 RMSDP=3.21D-07 MaxDP=2.37D-05 DE=-2.75D-08 OVMax= 2.86D-05

 Cycle  13  Pass 1  IDiag  1:
 RMSU=  1.97D-07    CP:  9.85D-01  7.23D-01  6.57D-01  7.60D-01  7.07D-01
                    CP:  8.55D-01  9.01D-01  1.18D+00  1.04D+00  1.07D+00
                    CP:  9.29D-01  8.41D-01
 E= -1467.54815675820     Delta-E=       -0.000000006666 Rises=F Damp=F
 DIIS: error= 1.01D-06 at cycle  13 NSaved=  13.
 NSaved=13 IEnMin=13 EnMin= -1467.54815675820     IErMin=13 ErrMin= 1.01D-06
 ErrMax= 1.01D-06  0.00D+00 EMaxC= 1.00D-01 BMatC= 4.36D-09 BMatP= 3.04D-08
 IDIUse=1 WtCom= 1.00D+00 WtEn= 0.00D+00
 Coeff-Com: -0.415D-05-0.102D-04 0.613D-04 0.213D-03 0.935D-03 0.280D-02
 Coeff-Com:  0.387D-02-0.101D-01-0.332D-01-0.359D-01 0.645D-01 0.302D+00
 Coeff-Com:  0.704D+00
 Coeff:     -0.415D-05-0.102D-04 0.613D-04 0.213D-03 0.935D-03 0.280D-02
 Coeff:      0.387D-02-0.101D-01-0.332D-01-0.359D-01 0.645D-01 0.302D+00
 Coeff:      0.704D+00
 Gap=     0.149 Goal=   None    Shift=    0.000
 Gap=     0.206 Goal=   None    Shift=    0.000
 RMSDP=1.31D-07 MaxDP=1.29D-05 DE=-6.67D-09 OVMax= 2.22D-05

 Cycle  14  Pass 1  IDiag  1:
 RMSU=  1.08D-07    CP:  9.85D-01  7.23D-01  6.57D-01  7.60D-01  7.07D-01
                    CP:  8.55D-01  9.01D-01  1.18D+00  1.04D+00  1.09D+00
                    CP:  9.64D-01  8.65D-01  8.39D-01
 E= -1467.54815675935     Delta-E=       -0.000000001149 Rises=F Damp=F
 DIIS: error= 5.25D-07 at cycle  14 NSaved=  14.
 NSaved=14 IEnMin=14 EnMin= -1467.54815675935     IErMin=14 ErrMin= 5.25D-07
 ErrMax= 5.25D-07  0.00D+00 EMaxC= 1.00D-01 BMatC= 9.02D-10 BMatP= 4.36D-09
 IDIUse=1 WtCom= 1.00D+00 WtEn= 0.00D+00
 Coeff-Com:  0.434D-06-0.119D-04-0.292D-04-0.468D-04 0.350D-03 0.167D-02
 Coeff-Com:  0.421D-02 0.152D-02-0.117D-01-0.403D-01-0.537D-01 0.281D-01
 Coeff-Com:  0.372D+00 0.698D+00
 Coeff:      0.434D-06-0.119D-04-0.292D-04-0.468D-04 0.350D-03 0.167D-02
 Coeff:      0.421D-02 0.152D-02-0.117D-01-0.403D-01-0.537D-01 0.281D-01
 Coeff:      0.372D+00 0.698D+00
 Gap=     0.149 Goal=   None    Shift=    0.000
 Gap=     0.206 Goal=   None    Shift=    0.000
 RMSDP=7.47D-08 MaxDP=4.84D-06 DE=-1.15D-09 OVMax= 6.17D-06

 Cycle  15  Pass 1  IDiag  1:
 RMSU=  3.49D-08    CP:  9.85D-01  7.23D-01  6.57D-01  7.60D-01  7.07D-01
                    CP:  8.55D-01  9.01D-01  1.18D+00  1.04D+00  1.09D+00
                    CP:  9.88D-01  9.48D-01  9.82D-01  7.92D-01
 E= -1467.54815675977     Delta-E=       -0.000000000420 Rises=F Damp=F
 DIIS: error= 1.28D-07 at cycle  15 NSaved=  15.
 NSaved=15 IEnMin=15 EnMin= -1467.54815675977     IErMin=15 ErrMin= 1.28D-07
 ErrMax= 1.28D-07  0.00D+00 EMaxC= 1.00D-01 BMatC= 6.00D-11 BMatP= 9.02D-10
 IDIUse=1 WtCom= 1.00D+00 WtEn= 0.00D+00
 Coeff-Com:  0.713D-06-0.212D-05-0.204D-04-0.489D-04-0.109D-04 0.214D-03
 Coeff-Com:  0.878D-03 0.212D-02 0.385D-03-0.790D-02-0.276D-01-0.353D-01
 Coeff-Com:  0.376D-01 0.224D+00 0.805D+00
 Coeff:      0.713D-06-0.212D-05-0.204D-04-0.489D-04-0.109D-04 0.214D-03
 Coeff:      0.878D-03 0.212D-02 0.385D-03-0.790D-02-0.276D-01-0.353D-01
 Coeff:      0.376D-01 0.224D+00 0.805D+00
 Gap=     0.149 Goal=   None    Shift=    0.000
 Gap=     0.206 Goal=   None    Shift=    0.000
 RMSDP=2.01D-08 MaxDP=1.25D-06 DE=-4.20D-10 OVMax= 1.84D-06

 Cycle  16  Pass 1  IDiag  1:
 RMSU=  1.38D-08    CP:  9.85D-01  7.23D-01  6.57D-01  7.60D-01  7.07D-01
                    CP:  8.55D-01  9.00D-01  1.18D+00  1.04D+00  1.10D+00
                    CP:  9.87D-01  9.54D-01  1.02D+00  8.80D-01  9.01D-01
 E= -1467.54815675964     Delta-E=        0.000000000135 Rises=F Damp=F
 DIIS: error= 4.28D-08 at cycle  16 NSaved=  16.
 NSaved=16 IEnMin=15 EnMin= -1467.54815675977     IErMin=16 ErrMin= 4.28D-08
 ErrMax= 4.28D-08  0.00D+00 EMaxC= 1.00D-01 BMatC= 1.12D-11 BMatP= 6.00D-11
 IDIUse=1 WtCom= 1.00D+00 WtEn= 0.00D+00
 Coeff-Com:  0.846D-07 0.106D-05-0.414D-05-0.116D-04-0.541D-04-0.149D-03
 Coeff-Com: -0.252D-03 0.637D-03 0.175D-02 0.272D-02-0.327D-02-0.190D-01
 Coeff-Com: -0.344D-01-0.161D-01 0.324D+00 0.745D+00
 Coeff:      0.846D-07 0.106D-05-0.414D-05-0.116D-04-0.541D-04-0.149D-03
 Coeff:     -0.252D-03 0.637D-03 0.175D-02 0.272D-02-0.327D-02-0.190D-01
 Coeff:     -0.344D-01-0.161D-01 0.324D+00 0.745D+00
 Gap=     0.149 Goal=   None    Shift=    0.000
 Gap=     0.206 Goal=   None    Shift=    0.000
 RMSDP=7.96D-09 MaxDP=4.37D-07 DE= 1.35D-10 OVMax= 6.58D-07

 SCF Done:  E(UPBE1PBE) =  -1467.54815676     A.U. after   16 cycles
            NFock= 16  Conv=0.80D-08     -V/T= 2.0053
 <Sx>= 0.0000 <Sy>= 0.0000 <Sz>= 0.5000 <S**2>= 0.7550 S= 0.5025
 <L.S>=  0.00000000000    
 KE= 1.459880525316D+03 PE=-6.497504272291D+03 EE= 2.049027075812D+03
 Annihilation of the first spin contaminant:
 S**2 before annihilation     0.7550,   after     0.7500
 Leave Link  502 at Wed Jun 12 15:31:53 2019, MaxMem=  8053063680 cpu:               0.0 elap:             156.3
 (Enter /data2/g16/g16/l601.exe)
 Copying SCF densities to generalized density rwf, IOpCl= 1 IROHF=0.

 **********************************************************************

            Population analysis using the SCF Density.

 **********************************************************************

 Orbital symmetries:
 Alpha Orbitals:
       Occupied  (A) (A) (A) (A) (A) (A) (A) (A) (A) (A) (A) (A)
                 (A) (A) (A) (A) (A) (A) (A) (A) (A) (A) (A) (A)
                 (A) (A) (A) (A) (A) (A) (A) (A) (A) (A) (A) (A)
                 (A) (A) (A) (A) (A) (A) (A) (A) (A) (A) (A) (A)
                 (A) (A) (A) (A) (A) (A) (A) (A) (A) (A) (A) (A)
                 (A) (A) (A) (A) (A) (A) (A) (A) (A) (A) (A)
       Virtual   (A) (A) (A) (A) (A) (A) (A) (A) (A) (A) (A) (A)
                 (A) (A) (A) (A) (A) (A) (A) (A) (A) (A) (A) (A)
                 (A) (A) (A) (A) (A) (A) (A) (A) (A) (A) (A) (A)
                 (A) (A) (A) (A) (A) (A) (A) (A) (A) (A) (A) (A)
                 (A) (A) (A) (A) (A) (A) (A) (A) (A) (A) (A) (A)
                 (A) (A) (A) (A) (A) (A) (A) (A) (A) (A) (A) (A)
                 (A) (A) (A) (A) (A) (A) (A) (A) (A) (A) (A) (A)
                 (A) (A) (A) (A) (A) (A) (A) (A) (A) (A) (A) (A)
                 (A) (A) (A) (A) (A) (A) (A) (A) (A) (A) (A) (A)
                 (A) (A) (A) (A) (A) (A) (A) (A) (A) (A) (A) (A)
                 (A) (A) (A) (A) (A) (A) (A) (A) (A) (A) (A) (A)
                 (A) (A) (A) (A) (A) (A) (A) (A) (A) (A) (A) (A)
                 (A) (A) (A) (A) (A) (A) (A) (A) (A) (A) (A) (A)
                 (A) (A) (A) (A) (A) (A) (A) (A) (A) (A) (A) (A)
                 (A) (A) (A) (A) (A) (A) (A) (A) (A) (A) (A) (A)
                 (A) (A) (A) (A) (A) (A) (A) (A) (A) (A) (A) (A)
                 (A) (A) (A) (A) (A) (A) (A) (A) (A) (A) (A) (A)
                 (A) (A) (A) (A) (A) (A) (A) (A) (A) (A) (A) (A)
                 (A) (A) (A) (A) (A) (A) (A) (A) (A) (A) (A) (A)
                 (A) (A) (A) (A) (A) (A) (A) (A) (A) (A) (A) (A)
                 (A) (A) (A) (A) (A) (A) (A) (A) (A) (A) (A) (A)
                 (A) (A) (A) (A) (A) (A) (A) (A) (A) (A) (A) (A)
                 (A) (A) (A) (A) (A) (A) (A) (A) (A) (A) (A) (A)
                 (A) (A) (A) (A) (A) (A) (A) (A) (A) (A) (A) (A)
                 (A) (A) (A) (A) (A) (A) (A) (A) (A) (A) (A) (A)
                 (A) (A) (A) (A) (A) (A) (A) (A) (A) (A) (A) (A)
                 (A) (A) (A) (A) (A) (A) (A) (A) (A) (A) (A) (A)
                 (A) (A) (A) (A) (A) (A) (A) (A) (A) (A) (A) (A)
                 (A) (A) (A) (A) (A) (A) (A) (A) (A) (A) (A) (A)
                 (A) (A) (A) (A) (A) (A) (A) (A) (A) (A) (A) (A)
                 (A) (A) (A) (A) (A) (A) (A)
 Beta  Orbitals:
       Occupied  (A) (A) (A) (A) (A) (A) (A) (A) (A) (A) (A) (A)
                 (A) (A) (A) (A) (A) (A) (A) (A) (A) (A) (A) (A)
                 (A) (A) (A) (A) (A) (A) (A) (A) (A) (A) (A) (A)
                 (A) (A) (A) (A) (A) (A) (A) (A) (A) (A) (A) (A)
                 (A) (A) (A) (A) (A) (A) (A) (A) (A) (A) (A) (A)
                 (A) (A) (A) (A) (A) (A) (A) (A) (A) (A)
       Virtual   (A) (A) (A) (A) (A) (A) (A) (A) (A) (A) (A) (A)
                 (A) (A) (A) (A) (A) (A) (A) (A) (A) (A) (A) (A)
                 (A) (A) (A) (A) (A) (A) (A) (A) (A) (A) (A) (A)
                 (A) (A) (A) (A) (A) (A) (A) (A) (A) (A) (A) (A)
                 (A) (A) (A) (A) (A) (A) (A) (A) (A) (A) (A) (A)
                 (A) (A) (A) (A) (A) (A) (A) (A) (A) (A) (A) (A)
                 (A) (A) (A) (A) (A) (A) (A) (A) (A) (A) (A) (A)
                 (A) (A) (A) (A) (A) (A) (A) (A) (A) (A) (A) (A)
                 (A) (A) (A) (A) (A) (A) (A) (A) (A) (A) (A) (A)
                 (A) (A) (A) (A) (A) (A) (A) (A) (A) (A) (A) (A)
                 (A) (A) (A) (A) (A) (A) (A) (A) (A) (A) (A) (A)
                 (A) (A) (A) (A) (A) (A) (A) (A) (A) (A) (A) (A)
                 (A) (A) (A) (A) (A) (A) (A) (A) (A) (A) (A) (A)
                 (A) (A) (A) (A) (A) (A) (A) (A) (A) (A) (A) (A)
                 (A) (A) (A) (A) (A) (A) (A) (A) (A) (A) (A) (A)
                 (A) (A) (A) (A) (A) (A) (A) (A) (A) (A) (A) (A)
                 (A) (A) (A) (A) (A) (A) (A) (A) (A) (A) (A) (A)
                 (A) (A) (A) (A) (A) (A) (A) (A) (A) (A) (A) (A)
                 (A) (A) (A) (A) (A) (A) (A) (A) (A) (A) (A) (A)
                 (A) (A) (A) (A) (A) (A) (A) (A) (A) (A) (A) (A)
                 (A) (A) (A) (A) (A) (A) (A) (A) (A) (A) (A) (A)
                 (A) (A) (A) (A) (A) (A) (A) (A) (A) (A) (A) (A)
                 (A) (A) (A) (A) (A) (A) (A) (A) (A) (A) (A) (A)
                 (A) (A) (A) (A) (A) (A) (A) (A) (A) (A) (A) (A)
                 (A) (A) (A) (A) (A) (A) (A) (A) (A) (A) (A) (A)
                 (A) (A) (A) (A) (A) (A) (A) (A) (A) (A) (A) (A)
                 (A) (A) (A) (A) (A) (A) (A) (A) (A) (A) (A) (A)
                 (A) (A) (A) (A) (A) (A) (A) (A) (A) (A) (A) (A)
                 (A) (A) (A) (A) (A) (A) (A) (A) (A) (A) (A) (A)
                 (A) (A) (A) (A) (A) (A) (A) (A) (A) (A) (A) (A)
                 (A) (A) (A) (A) (A) (A) (A) (A)
 The electronic state is 2-A.
 Alpha  occ. eigenvalues --  -89.28800 -89.08189 -19.24752 -19.24217 -19.22673
 Alpha  occ. eigenvalues --  -14.48525 -10.29723 -10.29699 -10.29130 -10.28729
 Alpha  occ. eigenvalues --  -10.26124 -10.24856 -10.23345 -10.22886 -10.22545
 Alpha  occ. eigenvalues --  -10.22304  -8.22119  -8.04432  -6.15842  -6.15797
 Alpha  occ. eigenvalues --   -6.15683  -5.98272  -5.97897  -5.97172  -1.14728
 Alpha  occ. eigenvalues --   -1.13280  -1.04487  -0.93267  -0.85921  -0.84020
 Alpha  occ. eigenvalues --   -0.82240  -0.77236  -0.74921  -0.72100  -0.71227
 Alpha  occ. eigenvalues --   -0.70590  -0.64464  -0.62449  -0.58950  -0.56428
 Alpha  occ. eigenvalues --   -0.53162  -0.51831  -0.51308  -0.50748  -0.50130
 Alpha  occ. eigenvalues --   -0.48509  -0.47392  -0.46358  -0.46171  -0.45114
 Alpha  occ. eigenvalues --   -0.44644  -0.43940  -0.42772  -0.42416  -0.41653
 Alpha  occ. eigenvalues --   -0.40495  -0.40101  -0.38993  -0.38835  -0.36495
 Alpha  occ. eigenvalues --   -0.36354  -0.36193  -0.35746  -0.35655  -0.34529
 Alpha  occ. eigenvalues --   -0.33589  -0.31778  -0.28311  -0.27248  -0.26896
 Alpha  occ. eigenvalues --   -0.20312
 Alpha virt. eigenvalues --   -0.05454  -0.02446   0.00474   0.01075   0.02635
 Alpha virt. eigenvalues --    0.03405   0.03683   0.04591   0.04825   0.04989
 Alpha virt. eigenvalues --    0.05443   0.05799   0.06157   0.06290   0.06849
 Alpha virt. eigenvalues --    0.07846   0.08236   0.08382   0.09043   0.09312
 Alpha virt. eigenvalues --    0.09422   0.09634   0.10374   0.10750   0.11021
 Alpha virt. eigenvalues --    0.11379   0.11813   0.12683   0.13018   0.13698
 Alpha virt. eigenvalues --    0.14029   0.14409   0.14698   0.14997   0.15572
 Alpha virt. eigenvalues --    0.15975   0.16666   0.16762   0.16941   0.17755
 Alpha virt. eigenvalues --    0.18360   0.18714   0.19243   0.19436   0.19644
 Alpha virt. eigenvalues --    0.20031   0.20818   0.21235   0.22055   0.22526
 Alpha virt. eigenvalues --    0.23168   0.23244   0.23930   0.24676   0.25446
 Alpha virt. eigenvalues --    0.26128   0.26325   0.26770   0.27113   0.27722
 Alpha virt. eigenvalues --    0.27881   0.28366   0.29077   0.29198   0.29759
 Alpha virt. eigenvalues --    0.30395   0.30645   0.31465   0.31734   0.31780
 Alpha virt. eigenvalues --    0.32188   0.32948   0.33508   0.34573   0.34980
 Alpha virt. eigenvalues --    0.35561   0.36805   0.37705   0.38153   0.40437
 Alpha virt. eigenvalues --    0.41661   0.41925   0.42142   0.43556   0.44159
 Alpha virt. eigenvalues --    0.46068   0.47074   0.47587   0.48134   0.50203
 Alpha virt. eigenvalues --    0.50653   0.50903   0.51792   0.51958   0.52912
 Alpha virt. eigenvalues --    0.53765   0.54115   0.54691   0.55468   0.56164
 Alpha virt. eigenvalues --    0.57156   0.58155   0.58321   0.59853   0.60584
 Alpha virt. eigenvalues --    0.61000   0.61917   0.62629   0.63165   0.63688
 Alpha virt. eigenvalues --    0.64197   0.64849   0.65309   0.65976   0.66691
 Alpha virt. eigenvalues --    0.67733   0.68178   0.68734   0.70139   0.71077
 Alpha virt. eigenvalues --    0.72076   0.72855   0.73164   0.74080   0.74227
 Alpha virt. eigenvalues --    0.74739   0.75878   0.76440   0.77176   0.78303
 Alpha virt. eigenvalues --    0.79014   0.79739   0.80777   0.81863   0.82181
 Alpha virt. eigenvalues --    0.82575   0.83241   0.83788   0.84882   0.85642
 Alpha virt. eigenvalues --    0.86112   0.87085   0.87929   0.88357   0.88676
 Alpha virt. eigenvalues --    0.89213   0.89825   0.90415   0.90907   0.91141
 Alpha virt. eigenvalues --    0.91483   0.92948   0.94129   0.94803   0.95438
 Alpha virt. eigenvalues --    0.96417   0.97342   0.97891   0.98146   0.99615
 Alpha virt. eigenvalues --    0.99727   1.01911   1.02231   1.03435   1.04487
 Alpha virt. eigenvalues --    1.04624   1.07634   1.08599   1.09144   1.11903
 Alpha virt. eigenvalues --    1.12398   1.14660   1.14924   1.15686   1.16546
 Alpha virt. eigenvalues --    1.18746   1.20154   1.21489   1.21977   1.23573
 Alpha virt. eigenvalues --    1.25404   1.29373   1.30443   1.31697   1.31852
 Alpha virt. eigenvalues --    1.36581   1.37799   1.39623   1.40177   1.41463
 Alpha virt. eigenvalues --    1.44324   1.45483   1.45854   1.47994   1.48785
 Alpha virt. eigenvalues --    1.49106   1.50548   1.51675   1.53072   1.56121
 Alpha virt. eigenvalues --    1.57640   1.59579   1.62466   1.63129   1.63249
 Alpha virt. eigenvalues --    1.65346   1.65761   1.67120   1.68169   1.68457
 Alpha virt. eigenvalues --    1.69644   1.70983   1.72160   1.73205   1.75064
 Alpha virt. eigenvalues --    1.75675   1.76271   1.77733   1.78640   1.79198
 Alpha virt. eigenvalues --    1.79754   1.80548   1.80970   1.81833   1.82546
 Alpha virt. eigenvalues --    1.83729   1.84369   1.85126   1.85825   1.87050
 Alpha virt. eigenvalues --    1.88163   1.89776   1.90913   1.93087   1.94247
 Alpha virt. eigenvalues --    1.95346   1.95875   1.97927   1.98222   1.98796
 Alpha virt. eigenvalues --    1.99501   2.02290   2.03103   2.04295   2.05570
 Alpha virt. eigenvalues --    2.06378   2.07216   2.10479   2.12485   2.13432
 Alpha virt. eigenvalues --    2.14758   2.16281   2.16676   2.23294   2.25992
 Alpha virt. eigenvalues --    2.27903   2.29470   2.31812   2.32921   2.34305
 Alpha virt. eigenvalues --    2.36823   2.38754   2.39411   2.40016   2.41062
 Alpha virt. eigenvalues --    2.42496   2.44910   2.47340   2.48643   2.49737
 Alpha virt. eigenvalues --    2.53634   2.54503   2.54816   2.58214   2.58905
 Alpha virt. eigenvalues --    2.60519   2.63931   2.65255   2.66027   2.67309
 Alpha virt. eigenvalues --    2.70644   2.75045   2.75449   2.77465   2.80861
 Alpha virt. eigenvalues --    2.82452   2.82708   2.83247   2.83425   2.84220
 Alpha virt. eigenvalues --    2.84476   2.85402   2.86595   2.86990   2.88163
 Alpha virt. eigenvalues --    2.88632   2.89580   2.90990   2.93188   2.93456
 Alpha virt. eigenvalues --    2.94642   2.95606   2.96851   2.97784   2.98379
 Alpha virt. eigenvalues --    2.99198   3.02549   3.03333   3.03833   3.06747
 Alpha virt. eigenvalues --    3.08047   3.15627   3.18021   3.19595   3.20214
 Alpha virt. eigenvalues --    3.26173   3.28222   3.29698   3.31239   3.31418
 Alpha virt. eigenvalues --    3.34366   3.35858   3.37442   3.38363   3.41317
 Alpha virt. eigenvalues --    3.41838   3.42950   3.45203   3.48123   3.49733
 Alpha virt. eigenvalues --    3.53773   3.56350   3.59653   3.63399   3.64643
 Alpha virt. eigenvalues --    3.76620   3.93558   4.47134   4.57386   4.62178
 Alpha virt. eigenvalues --    4.64297   4.72438   4.74009   4.74795   4.86494
 Alpha virt. eigenvalues --    4.91247   5.03022   5.44374   5.81804   5.84495
 Alpha virt. eigenvalues --    6.07662  22.21710  22.63391  58.49227  58.49262
 Alpha virt. eigenvalues --   58.50380  58.50648  58.50873  58.55563  58.56016
 Alpha virt. eigenvalues --   58.56377  58.56645  58.56826  95.61664 106.32264
 Alpha virt. eigenvalues --  106.33256 106.39002
  Beta  occ. eigenvalues --  -89.28800 -89.08189 -19.24752 -19.24217 -19.21236
  Beta  occ. eigenvalues --  -14.47342 -10.29725 -10.29699 -10.29191 -10.28790
  Beta  occ. eigenvalues --  -10.26123 -10.24852 -10.23294 -10.22834 -10.22498
  Beta  occ. eigenvalues --  -10.22257  -8.22119  -8.04431  -6.15842  -6.15797
  Beta  occ. eigenvalues --   -6.15683  -5.98272  -5.97896  -5.97172  -1.14728
  Beta  occ. eigenvalues --   -1.10646  -1.04488  -0.92304  -0.85728  -0.83916
  Beta  occ. eigenvalues --   -0.82107  -0.77034  -0.73853  -0.71850  -0.71098
  Beta  occ. eigenvalues --   -0.70141  -0.64412  -0.62322  -0.58570  -0.55920
  Beta  occ. eigenvalues --   -0.53071  -0.51825  -0.51017  -0.50414  -0.48334
  Beta  occ. eigenvalues --   -0.47506  -0.47165  -0.46340  -0.46106  -0.44972
  Beta  occ. eigenvalues --   -0.44241  -0.43784  -0.42496  -0.41642  -0.41183
  Beta  occ. eigenvalues --   -0.40199  -0.40034  -0.38661  -0.37653  -0.36315
  Beta  occ. eigenvalues --   -0.36133  -0.35726  -0.35693  -0.34501  -0.33585
  Beta  occ. eigenvalues --   -0.32621  -0.31772  -0.28231  -0.26714  -0.26014
  Beta virt. eigenvalues --   -0.05455  -0.03966  -0.02411   0.00487   0.01080
  Beta virt. eigenvalues --    0.02656   0.03433   0.03720   0.04632   0.04915
  Beta virt. eigenvalues --    0.05020   0.05467   0.05840   0.06184   0.06314
  Beta virt. eigenvalues --    0.06914   0.07865   0.08297   0.08448   0.09069
  Beta virt. eigenvalues --    0.09352   0.09547   0.09690   0.10417   0.10797
  Beta virt. eigenvalues --    0.11043   0.11439   0.11910   0.12799   0.13104
  Beta virt. eigenvalues --    0.13756   0.14090   0.14448   0.14781   0.15054
  Beta virt. eigenvalues --    0.15910   0.16066   0.16712   0.16974   0.17226
  Beta virt. eigenvalues --    0.17889   0.18410   0.18807   0.19363   0.19627
  Beta virt. eigenvalues --    0.19757   0.20245   0.20974   0.21352   0.22151
  Beta virt. eigenvalues --    0.22705   0.23226   0.23326   0.24092   0.24970
  Beta virt. eigenvalues --    0.25585   0.26235   0.26415   0.26877   0.27225
  Beta virt. eigenvalues --    0.27769   0.28016   0.28501   0.29123   0.29367
  Beta virt. eigenvalues --    0.30109   0.30569   0.31027   0.31597   0.31825
  Beta virt. eigenvalues --    0.32099   0.32493   0.33040   0.33584   0.34642
  Beta virt. eigenvalues --    0.35097   0.35764   0.36842   0.37783   0.38244
  Beta virt. eigenvalues --    0.40478   0.41770   0.41979   0.42544   0.43590
  Beta virt. eigenvalues --    0.44305   0.46141   0.47198   0.47625   0.48171
  Beta virt. eigenvalues --    0.50307   0.50787   0.51006   0.51907   0.52030
  Beta virt. eigenvalues --    0.52957   0.53872   0.54212   0.54868   0.55534
  Beta virt. eigenvalues --    0.56240   0.57251   0.58275   0.58459   0.59951
  Beta virt. eigenvalues --    0.60697   0.61132   0.61947   0.62673   0.63331
  Beta virt. eigenvalues --    0.63851   0.64266   0.64900   0.65480   0.66120
  Beta virt. eigenvalues --    0.66755   0.67788   0.68492   0.68896   0.70380
  Beta virt. eigenvalues --    0.71315   0.72145   0.72969   0.73228   0.74157
  Beta virt. eigenvalues --    0.74465   0.74778   0.76001   0.76493   0.77258
  Beta virt. eigenvalues --    0.78511   0.79103   0.79890   0.80895   0.82058
  Beta virt. eigenvalues --    0.82251   0.82673   0.83310   0.83848   0.84944
  Beta virt. eigenvalues --    0.85719   0.86196   0.87194   0.87961   0.88423
  Beta virt. eigenvalues --    0.88715   0.89251   0.89888   0.90531   0.91012
  Beta virt. eigenvalues --    0.91202   0.91673   0.93087   0.94349   0.94893
  Beta virt. eigenvalues --    0.95511   0.96568   0.97493   0.98000   0.99418
  Beta virt. eigenvalues --    0.99705   0.99860   1.02111   1.02302   1.03572
  Beta virt. eigenvalues --    1.04570   1.04825   1.07690   1.08637   1.09310
  Beta virt. eigenvalues --    1.12335   1.12571   1.14683   1.14995   1.15849
  Beta virt. eigenvalues --    1.16851   1.19057   1.20515   1.22026   1.23014
  Beta virt. eigenvalues --    1.23733   1.25832   1.29865   1.31058   1.31856
  Beta virt. eigenvalues --    1.32520   1.36947   1.38130   1.39677   1.40263
  Beta virt. eigenvalues --    1.41524   1.44360   1.45677   1.46102   1.48148
  Beta virt. eigenvalues --    1.48917   1.49215   1.50607   1.51783   1.53103
  Beta virt. eigenvalues --    1.56299   1.57732   1.59693   1.62505   1.63150
  Beta virt. eigenvalues --    1.63279   1.65674   1.65959   1.67701   1.68342
  Beta virt. eigenvalues --    1.68481   1.69905   1.71041   1.72207   1.73329
  Beta virt. eigenvalues --    1.75154   1.75741   1.76396   1.77768   1.78695
  Beta virt. eigenvalues --    1.79245   1.79831   1.80635   1.81008   1.81898
  Beta virt. eigenvalues --    1.82707   1.83870   1.84442   1.85223   1.85993
  Beta virt. eigenvalues --    1.87182   1.88274   1.89883   1.91139   1.93230
  Beta virt. eigenvalues --    1.94364   1.95358   1.95903   1.98138   1.98388
  Beta virt. eigenvalues --    1.99051   1.99777   2.02583   2.03404   2.04481
  Beta virt. eigenvalues --    2.05911   2.06847   2.07658   2.10820   2.12904
  Beta virt. eigenvalues --    2.13582   2.15093   2.16326   2.17043   2.24105
  Beta virt. eigenvalues --    2.26042   2.28006   2.30589   2.31972   2.33052
  Beta virt. eigenvalues --    2.34426   2.36913   2.38759   2.39414   2.40202
  Beta virt. eigenvalues --    2.41375   2.42764   2.45016   2.47515   2.49154
  Beta virt. eigenvalues --    2.49902   2.53873   2.54900   2.55641   2.58767
  Beta virt. eigenvalues --    2.59029   2.60586   2.64031   2.65362   2.66101
  Beta virt. eigenvalues --    2.68082   2.70806   2.75259   2.75806   2.77637
  Beta virt. eigenvalues --    2.81089   2.82466   2.82740   2.83265   2.84224
  Beta virt. eigenvalues --    2.84419   2.85472   2.85971   2.86972   2.87365
  Beta virt. eigenvalues --    2.88320   2.89669   2.89947   2.91262   2.93258
  Beta virt. eigenvalues --    2.94655   2.95354   2.95954   2.96966   2.98043
  Beta virt. eigenvalues --    2.98434   2.99622   3.02763   3.03810   3.04281
  Beta virt. eigenvalues --    3.06855   3.08158   3.16038   3.19035   3.19809
  Beta virt. eigenvalues --    3.23527   3.26176   3.28224   3.30171   3.31273
  Beta virt. eigenvalues --    3.31515   3.34425   3.35869   3.37485   3.38381
  Beta virt. eigenvalues --    3.41489   3.41896   3.42995   3.45242   3.48253
  Beta virt. eigenvalues --    3.49830   3.53944   3.56389   3.59697   3.63508
  Beta virt. eigenvalues --    3.64660   3.76639   3.95267   4.47207   4.57448
  Beta virt. eigenvalues --    4.62178   4.64416   4.72512   4.74110   4.74901
  Beta virt. eigenvalues --    4.86623   4.91286   5.03028   5.46250   5.81815
  Beta virt. eigenvalues --    5.84496   6.10179  22.21711  22.63391  58.49226
  Beta virt. eigenvalues --   58.49260  58.50362  58.50614  58.50823  58.55609
  Beta virt. eigenvalues --   58.56063  58.56417  58.56686  58.56829  95.62588
  Beta virt. eigenvalues --  106.32266 106.33256 106.40148
          Condensed to atoms (all electrons):
               1          2          3          4          5          6
     1  O    8.658512  -0.003597  -0.086886  -0.001605   0.036536  -0.003843
     2  N   -0.003597   7.332209   0.091323  -0.066300  -0.021590   0.015833
     3  C   -0.086886   0.091323   5.433334   0.244796  -0.095881   0.018165
     4  C   -0.001605  -0.066300   0.244796   5.179537   0.605048  -0.034889
     5  C    0.036536  -0.021590  -0.095881   0.605048   5.386169   0.194006
     6  C   -0.003843   0.015833   0.018165  -0.034889   0.194006   5.228658
     7  S   -0.000743   0.004619   0.000429  -0.002384  -0.127126   0.259122
     8  C   -0.073070   0.070794  -0.140619  -0.051215   0.220270  -0.074113
     9  C   -0.017509  -0.088984   0.006590  -0.003475  -0.062338   0.008120
    10  C   -0.005704  -0.083311   0.017545  -0.009375  -0.081572   0.005666
    11  C   -0.001689  -0.101399   0.313090  -0.053416  -0.011941  -0.002270
    12  C   -0.009381  -0.091549   0.312131  -0.073868   0.001017  -0.001740
    13  H   -0.000767   0.004862  -0.036417   0.406292  -0.050341  -0.001457
    14  H    0.000030  -0.001363   0.002323   0.022205  -0.081197   0.420105
    15  H    0.000143  -0.003605  -0.000036   0.005714  -0.063610   0.407728
    16  H   -0.001618   0.013478  -0.004497   0.004440   0.003558  -0.000922
    17  H   -0.000361   0.007101  -0.000323   0.000942  -0.007105   0.002162
    18  H    0.007303  -0.025426   0.001861  -0.000851   0.008169  -0.000945
    19  H    0.007915  -0.023956  -0.001399  -0.001292   0.018081  -0.001286
    20  H   -0.000673   0.004529  -0.000779   0.001478  -0.002340   0.001780
    21  H   -0.000039   0.006645   0.002216   0.000131  -0.005626   0.004008
    22  H    0.000073   0.004592  -0.052877  -0.007560   0.008190  -0.000687
    23  H   -0.000891   0.007172  -0.046786   0.000962   0.001772  -0.000046
    24  H    0.007313  -0.023491  -0.034175   0.015566  -0.002644   0.000065
    25  H    0.007227  -0.030527  -0.024826   0.015031  -0.001173   0.000016
    26  H   -0.000105   0.009218  -0.047559  -0.002911   0.000059  -0.000028
    27  H   -0.000592   0.010451  -0.061700  -0.003071   0.005270  -0.000491
    28  S   -0.000265   0.000656  -0.001555  -0.031408  -0.003795  -0.004595
    29  O    0.000344   0.002683  -0.001998   0.032021   0.008187   0.004665
    30  O    0.000180  -0.002124  -0.004447   0.024734   0.015555  -0.024563
    31  C    0.000015  -0.000053  -0.000571   0.003510   0.003707  -0.000328
    32  H   -0.000000  -0.000004   0.000031  -0.000150  -0.000368   0.000133
    33  H   -0.000000   0.000003   0.000022   0.000017   0.000032   0.000206
    34  H   -0.000000   0.000001  -0.000027  -0.000544   0.000188  -0.000423
               7          8          9         10         11         12
     1  O   -0.000743  -0.073070  -0.017509  -0.005704  -0.001689  -0.009381
     2  N    0.004619   0.070794  -0.088984  -0.083311  -0.101399  -0.091549
     3  C    0.000429  -0.140619   0.006590   0.017545   0.313090   0.312131
     4  C   -0.002384  -0.051215  -0.003475  -0.009375  -0.053416  -0.073868
     5  C   -0.127126   0.220270  -0.062338  -0.081572  -0.011941   0.001017
     6  C    0.259122  -0.074113   0.008120   0.005666  -0.002270  -0.001740
     7  S   15.864673  -0.004260   0.003987  -0.000531  -0.000242   0.000896
     8  C   -0.004260   5.422316   0.320875   0.325290   0.018699   0.017304
     9  C    0.003987   0.320875   5.007080  -0.084235  -0.005399   0.004667
    10  C   -0.000531   0.325290  -0.084235   5.033773   0.004845  -0.005819
    11  C   -0.000242   0.018699  -0.005399   0.004845   5.033903  -0.080719
    12  C    0.000896   0.017304   0.004667  -0.005819  -0.080719   5.018232
    13  H    0.000011   0.012061  -0.000900  -0.001495  -0.000488   0.002599
    14  H   -0.042047   0.002686   0.000054  -0.001861  -0.000117  -0.000035
    15  H   -0.041253   0.007654  -0.000862   0.005747   0.000313  -0.000068
    16  H    0.000982  -0.064404   0.412717   0.009177   0.000176  -0.001545
    17  H    0.001040  -0.034653   0.400057  -0.004049   0.000135  -0.000126
    18  H   -0.000016  -0.032283   0.412909  -0.003857  -0.000098   0.000093
    19  H    0.000005  -0.040576  -0.002963   0.414928  -0.000351   0.000131
    20  H   -0.000091  -0.038818  -0.003900   0.401180  -0.000072   0.000160
    21  H   -0.001120  -0.056332   0.008333   0.410169  -0.000820  -0.000111
    22  H    0.000014  -0.001040   0.000058  -0.000996   0.410190   0.008277
    23  H    0.000007  -0.001254   0.000177  -0.000078   0.405385  -0.002935
    24  H   -0.000011   0.000388   0.000020  -0.000334   0.411263  -0.003970
    25  H   -0.000032  -0.001939   0.000258  -0.000073  -0.004438   0.410399
    26  H   -0.000004  -0.000661  -0.000132   0.000152  -0.002117   0.406667
    27  H   -0.000053  -0.000253  -0.001669   0.000098   0.009102   0.413174
    28  S    0.310889   0.001646  -0.003155  -0.000206  -0.000957   0.001966
    29  O   -0.075254  -0.006065  -0.001001   0.000064   0.000325  -0.005906
    30  O   -0.083787  -0.002204   0.000689  -0.000070   0.001175   0.000389
    31  C   -0.051953  -0.000845   0.000171   0.000045   0.000061  -0.000180
    32  H   -0.000570   0.000116  -0.000061  -0.000002  -0.000001  -0.000006
    33  H    0.001482  -0.000036  -0.000002   0.000000  -0.000000  -0.000005
    34  H    0.002691   0.000116   0.000004  -0.000000  -0.000000   0.000008
              13         14         15         16         17         18
     1  O   -0.000767   0.000030   0.000143  -0.001618  -0.000361   0.007303
     2  N    0.004862  -0.001363  -0.003605   0.013478   0.007101  -0.025426
     3  C   -0.036417   0.002323  -0.000036  -0.004497  -0.000323   0.001861
     4  C    0.406292   0.022205   0.005714   0.004440   0.000942  -0.000851
     5  C   -0.050341  -0.081197  -0.063610   0.003558  -0.007105   0.008169
     6  C   -0.001457   0.420105   0.407728  -0.000922   0.002162  -0.000945
     7  S    0.000011  -0.042047  -0.041253   0.000982   0.001040  -0.000016
     8  C    0.012061   0.002686   0.007654  -0.064404  -0.034653  -0.032283
     9  C   -0.000900   0.000054  -0.000862   0.412717   0.400057   0.412909
    10  C   -0.001495  -0.001861   0.005747   0.009177  -0.004049  -0.003857
    11  C   -0.000488  -0.000117   0.000313   0.000176   0.000135  -0.000098
    12  C    0.002599  -0.000035  -0.000068  -0.001545  -0.000126   0.000093
    13  H    0.508382   0.002103  -0.000027  -0.000043  -0.000001   0.000004
    14  H    0.002103   0.489194  -0.014216  -0.000033  -0.000017   0.000001
    15  H   -0.000027  -0.014216   0.530558   0.000087  -0.000047   0.000010
    16  H   -0.000043  -0.000033   0.000087   0.537151  -0.019118  -0.014960
    17  H   -0.000001  -0.000017  -0.000047  -0.019118   0.566364  -0.021081
    18  H    0.000004   0.000001   0.000010  -0.014960  -0.021081   0.520948
    19  H    0.000005   0.000003  -0.000033  -0.000006  -0.000250   0.001939
    20  H    0.000002   0.000021  -0.000029   0.000101   0.001225  -0.000161
    21  H   -0.000015  -0.000015  -0.000262  -0.000140   0.000070   0.000029
    22  H    0.000055   0.000005   0.000002  -0.000001   0.000000   0.000000
    23  H    0.000515   0.000001   0.000000  -0.000000  -0.000000   0.000000
    24  H    0.000020   0.000000  -0.000000  -0.000001   0.000000  -0.000002
    25  H   -0.000043  -0.000000   0.000000  -0.000006  -0.000000  -0.000009
    26  H    0.000176  -0.000001   0.000000   0.000008  -0.000000  -0.000000
    27  H   -0.000104  -0.000002   0.000000   0.000314   0.000010  -0.000015
    28  S    0.003567  -0.014466   0.002849  -0.000838  -0.000996   0.000386
    29  O   -0.000348   0.001056  -0.000796  -0.000042   0.000188  -0.000014
    30  O   -0.001075   0.011574  -0.001247   0.000060   0.000019  -0.000010
    31  C   -0.000119   0.000461  -0.000043   0.000031   0.000049  -0.000003
    32  H    0.000000   0.000005  -0.000001  -0.000000  -0.000000   0.000000
    33  H    0.000000  -0.000011   0.000000   0.000000   0.000000  -0.000000
    34  H    0.000001   0.000024  -0.000000   0.000000  -0.000000   0.000000
              19         20         21         22         23         24
     1  O    0.007915  -0.000673  -0.000039   0.000073  -0.000891   0.007313
     2  N   -0.023956   0.004529   0.006645   0.004592   0.007172  -0.023491
     3  C   -0.001399  -0.000779   0.002216  -0.052877  -0.046786  -0.034175
     4  C   -0.001292   0.001478   0.000131  -0.007560   0.000962   0.015566
[...]
     6  C   -0.048953  -0.000132
     7  S   -0.019370   0.000314
     8  C    0.204425  -0.034197
     9  C    0.070554   0.022881
    10  C    0.029522   0.019852
    11  C    0.039306   0.019980
    12  C    0.062853   0.023507
    28  S    0.890182  -0.000083
    29  O   -0.511920  -0.000003
    30  O   -0.568541  -0.000029
    31  C    0.149873  -0.000010
 Electronic spatial extent (au):  <R**2>=           4765.3551
 Charge=             -0.0000 electrons
 Dipole moment (field-independent basis, Debye):
    X=              4.1536    Y=              1.8389    Z=             -2.2731  Tot=              5.0795
 Quadrupole moment (field-independent basis, Debye-Ang):
   XX=           -107.0243   YY=           -109.0335   ZZ=           -116.4573
   XY=              5.2372   XZ=              7.1979   YZ=             -0.6319
 Traceless Quadrupole moment (field-independent basis, Debye-Ang):
   XX=              3.8141   YY=              1.8049   ZZ=             -5.6189
   XY=              5.2372   XZ=              7.1979   YZ=             -0.6319
 Octapole moment (field-independent basis, Debye-Ang**2):
  XXX=            183.7581  YYY=             -3.7501  ZZZ=              0.1384  XYY=            -13.8142
  XXY=             -8.5844  XXZ=            -10.0830  XZZ=              1.0847  YZZ=              5.9524
  YYZ=             -2.4719  XYZ=              0.5039
 Hexadecapole moment (field-independent basis, Debye-Ang**3):
 XXXX=          -3931.8424 YYYY=          -1372.0032 ZZZZ=           -691.1497 XXXY=            -22.0447
 XXXZ=            128.4357 YYYX=            -17.2067 YYYZ=              0.9786 ZZZX=            -10.1768
 ZZZY=             -2.6016 XXYY=           -930.9906 XXZZ=           -860.8790 YYZZ=           -352.3432
 XXYZ=             -4.0226 YYXZ=             -4.2814 ZZXY=             14.6974
 N-N= 1.521048514403D+03 E-N=-6.497504254513D+03  KE= 1.459880525316D+03
                          Isotropic Fermi Contact Couplings
        Atom                 a.u.       MegaHertz       Gauss      10(-4) cm-1
     1  O(17)              0.08663     -52.51207     -18.73761     -17.51614
     2  N(14)              0.11071      35.77169      12.76423      11.93215
     3  C(13)             -0.01376     -15.46453      -5.51813      -5.15841
     4  C(13)              0.00004       0.04449       0.01588       0.01484
     5  C(13)             -0.00010      -0.11415      -0.04073      -0.03808
     6  C(13)             -0.00067      -0.74944      -0.26742      -0.24999
     7  S(33)             -0.00004      -0.01235      -0.00441      -0.00412
     8  C(13)             -0.01395     -15.68318      -5.59615      -5.23135
     9  C(13)              0.01143      12.85122       4.58563       4.28670
    10  C(13)              0.01808      20.32741       7.25333       6.78049
    11  C(13)              0.01792      20.14397       7.18787       6.71930
    12  C(13)              0.01176      13.22202       4.71795       4.41039
    13  H(1)              -0.00027      -1.19521      -0.42648      -0.39868
    14  H(1)               0.00003       0.14981       0.05346       0.04997
    15  H(1)               0.00000       0.01531       0.00546       0.00511
    16  H(1)              -0.00040      -1.77000      -0.63158      -0.59041
    17  H(1)               0.00022       0.97894       0.34931       0.32654
    18  H(1)              -0.00052      -2.31663      -0.82663      -0.77275
    19  H(1)              -0.00048      -2.13836      -0.76302      -0.71328
    20  H(1)               0.00039       1.74897       0.62408       0.58340
    21  H(1)              -0.00032      -1.43510      -0.51208      -0.47870
    22  H(1)              -0.00033      -1.45548      -0.51935      -0.48549
    23  H(1)               0.00037       1.64936       0.58853       0.55017
    24  H(1)              -0.00046      -2.05871      -0.73460      -0.68671
    25  H(1)              -0.00050      -2.25180      -0.80350      -0.75112
    26  H(1)               0.00025       1.10301       0.39358       0.36792
    27  H(1)              -0.00040      -1.80499      -0.64406      -0.60208
    28  S(33)              0.00000       0.00071       0.00025       0.00024
    29  O(17)             -0.00001       0.00354       0.00126       0.00118
    30  O(17)             -0.00003       0.01872       0.00668       0.00624
    31  C(13)             -0.00001      -0.00786      -0.00281      -0.00262
    32  H(1)               0.00000       0.00115       0.00041       0.00038
    33  H(1)              -0.00000      -0.00060      -0.00021      -0.00020
    34  H(1)              -0.00000      -0.00059      -0.00021      -0.00020
 --------------------------------------------------------
       Center         ----  Spin Dipole Couplings  ----
                      3XX-RR        3YY-RR        3ZZ-RR
 --------------------------------------------------------
     1   Atom       -0.117978     -0.885849      1.003827
     2   Atom       -0.105146     -0.549099      0.654245
     3   Atom       -0.005363      0.012455     -0.007092
     4   Atom        0.004666     -0.005096      0.000430
     5   Atom        0.008351     -0.007181     -0.001170
     6   Atom        0.002353     -0.001484     -0.000870
     7   Atom        0.002072     -0.001194     -0.000878
     8   Atom        0.003932      0.004980     -0.008912
     9   Atom       -0.010851     -0.001299      0.012150
    10   Atom       -0.010344      0.019918     -0.009574
    11   Atom       -0.001636      0.002838     -0.001201
    12   Atom       -0.016773      0.015025      0.001748
    13   Atom        0.001805     -0.001030     -0.000775
    14   Atom        0.001461     -0.001204     -0.000257
    15   Atom        0.001229     -0.000680     -0.000550
    16   Atom        0.003409     -0.003394     -0.000014
    17   Atom        0.000447      0.001882     -0.002329
    18   Atom       -0.002135      0.004521     -0.002387
    19   Atom       -0.004855      0.009655     -0.004799
    20   Atom       -0.001247      0.003869     -0.002622
    21   Atom       -0.005628      0.000552      0.005076
    22   Atom       -0.005857     -0.002135      0.007992
    23   Atom       -0.002730      0.003613     -0.000883
    24   Atom       -0.001742      0.003787     -0.002045
    25   Atom       -0.005002      0.010217     -0.005215
    26   Atom       -0.002848      0.005384     -0.002536
    27   Atom       -0.000451      0.001871     -0.001420
    28   Atom        0.001417     -0.000722     -0.000695
    29   Atom        0.001460     -0.000685     -0.000775
    30   Atom        0.001033     -0.000588     -0.000445
    31   Atom        0.000660     -0.000329     -0.000332
    32   Atom        0.000619     -0.000311     -0.000308
    33   Atom        0.000518     -0.000249     -0.000269
    34   Atom        0.000551     -0.000285     -0.000266
 --------------------------------------------------------
                        XY            XZ            YZ
 --------------------------------------------------------
     1   Atom       -0.328419      1.405304     -0.496562
     2   Atom       -0.187726      0.792415     -0.295594
     3   Atom       -0.009428     -0.001087      0.006744
     4   Atom       -0.006222     -0.007552      0.002943
     5   Atom        0.002664     -0.007666     -0.001166
     6   Atom        0.001025     -0.001839     -0.000422
     7   Atom        0.000796      0.000410      0.000133
     8   Atom        0.013462     -0.000696     -0.002544
     9   Atom        0.010135      0.007555      0.021126
    10   Atom       -0.010228      0.003814     -0.017486
    11   Atom        0.014974      0.013679      0.018756
    12   Atom       -0.003456     -0.001630     -0.022688
    13   Atom       -0.002827     -0.002828      0.001614
    14   Atom        0.000294     -0.001634     -0.000182
    15   Atom        0.001543     -0.001640     -0.000912
    16   Atom        0.003562      0.006984      0.002032
    17   Atom        0.005270      0.000574      0.001163
    18   Atom        0.006120      0.002219      0.007935
    19   Atom       -0.001724     -0.001098     -0.005135
    20   Atom        0.003305     -0.001016     -0.003043
    21   Atom        0.001195      0.000086     -0.007479
    22   Atom        0.000469      0.002646      0.005402
    23   Atom       -0.001001     -0.000145      0.004592
    24   Atom        0.005474      0.001987      0.006892
    25   Atom       -0.001456     -0.001339     -0.005227
    26   Atom       -0.003423     -0.000675      0.000300
    27   Atom       -0.005867      0.004707     -0.004383
    28   Atom       -0.000216     -0.000164      0.000024
    29   Atom       -0.000556      0.000341     -0.000082
    30   Atom       -0.000413     -0.000559      0.000133
    31   Atom       -0.000043     -0.000045      0.000003
    32   Atom        0.000034      0.000069      0.000003
    33   Atom       -0.000125     -0.000021      0.000003
    34   Atom        0.000020     -0.000130     -0.000002
 --------------------------------------------------------


 ---------------------------------------------------------------------------------
              Anisotropic Spin Dipole Couplings in Principal Axis System
 ---------------------------------------------------------------------------------

       Atom             a.u.   MegaHertz   Gauss  10(-4) cm-1        Axes

              Baa    -1.0708    77.485    27.649    25.846  0.8130 -0.0975 -0.5740
     1 O(17)  Bbb    -1.0049    72.711    25.945    24.254  0.1923  0.9755  0.1066
              Bcc     2.0757  -150.196   -53.594   -50.100  0.5496 -0.1971  0.8119
 
              Baa    -0.6184   -23.852    -8.511    -7.956  0.1806  0.9769  0.1145
     2 N(14)  Bbb    -0.6040   -23.296    -8.312    -7.771  0.8331 -0.0900 -0.5458
              Bcc     1.2224    47.147    16.823    15.727  0.5229 -0.1939  0.8301
 
              Baa    -0.0108    -1.446    -0.516    -0.482  0.6472  0.4429 -0.6204
     3 C(13)  Bbb    -0.0075    -1.004    -0.358    -0.335  0.6672  0.0645  0.7421
              Bcc     0.0183     2.450     0.874     0.817 -0.3687  0.8943  0.2537
 
              Baa    -0.0082    -1.103    -0.393    -0.368  0.4970  0.8559  0.1428
     4 C(13)  Bbb    -0.0047    -0.632    -0.225    -0.211  0.4149 -0.3790  0.8272
              Bcc     0.0129     1.734     0.619     0.579  0.7621 -0.3519 -0.5435
 
              Baa    -0.0076    -1.024    -0.365    -0.342 -0.1827  0.9824 -0.0394
     5 C(13)  Bbb    -0.0054    -0.725    -0.259    -0.242  0.4652  0.1217  0.8768
              Bcc     0.0130     1.748     0.624     0.583  0.8661  0.1418 -0.4793
 
              Baa    -0.0018    -0.236    -0.084    -0.079 -0.3958  0.8092 -0.4343
     6 C(13)  Bbb    -0.0017    -0.225    -0.080    -0.075  0.2293  0.5450  0.8065
              Bcc     0.0034     0.461     0.165     0.154  0.8892  0.2196 -0.4013
 
              Baa    -0.0014    -0.057    -0.020    -0.019 -0.2147  0.9732 -0.0822
     7 S(33)  Bbb    -0.0009    -0.038    -0.014    -0.013 -0.1481  0.0507  0.9877
              Bcc     0.0023     0.095     0.034     0.032  0.9654  0.2242  0.1332
 
              Baa    -0.0103    -1.385    -0.494    -0.462 -0.4592  0.5233  0.7179
     8 C(13)  Bbb    -0.0078    -1.047    -0.374    -0.349  0.5622 -0.4545  0.6909
              Bcc     0.0181     2.432     0.868     0.811  0.6878  0.7208 -0.0855
 
              Baa    -0.0193    -2.593    -0.925    -0.865 -0.5639  0.7419 -0.3626
     9 C(13)  Bbb    -0.0118    -1.580    -0.564    -0.527  0.7775  0.3290 -0.5360
              Bcc     0.0311     4.173     1.489     1.392  0.2784  0.5842  0.7623
 
              Baa    -0.0178    -2.395    -0.855    -0.799  0.1705  0.4516  0.8758
    10 C(13)  Bbb    -0.0131    -1.754    -0.626    -0.585  0.9518  0.1546 -0.2650
              Bcc     0.0309     4.149     1.480     1.384 -0.2551  0.8787 -0.4035
 
              Baa    -0.0181    -2.422    -0.864    -0.808 -0.0310 -0.6554  0.7547
    11 C(13)  Bbb    -0.0139    -1.863    -0.665    -0.621  0.8554 -0.4080 -0.3192
              Bcc     0.0319     4.285     1.529     1.429  0.5171  0.6356  0.5732
 
              Baa    -0.0195    -2.618    -0.934    -0.873  0.7833  0.3942  0.4807
    12 C(13)  Bbb    -0.0126    -1.688    -0.602    -0.563 -0.6206  0.4501  0.6421
              Bcc     0.0321     4.306     1.537     1.436 -0.0367  0.8013 -0.5972
 
              Baa    -0.0028    -1.499    -0.535    -0.500  0.6225  0.7276  0.2883
    13 H(1)   Bbb    -0.0025    -1.327    -0.473    -0.443  0.2120 -0.5114  0.8328
              Bcc     0.0053     2.825     1.008     0.942  0.7534 -0.4573 -0.4726
 
              Baa    -0.0012    -0.665    -0.237    -0.222  0.4442  0.3908  0.8062
    14 H(1)   Bbb    -0.0012    -0.659    -0.235    -0.220 -0.2766  0.9157 -0.2915
              Bcc     0.0025     1.324     0.472     0.441  0.8521  0.0935 -0.5149
 
              Baa    -0.0015    -0.822    -0.293    -0.274 -0.5286  0.8431 -0.0993
    15 H(1)   Bbb    -0.0015    -0.813    -0.290    -0.271  0.3456  0.3206  0.8819
              Bcc     0.0031     1.635     0.583     0.545  0.7753  0.4319 -0.4608
 
              Baa    -0.0058    -3.083    -1.100    -1.028  0.6464 -0.4263 -0.6329
    16 H(1)   Bbb    -0.0043    -2.310    -0.824    -0.771  0.0659  0.8575 -0.5103
              Bcc     0.0101     5.393     1.924     1.799  0.7602  0.2881  0.5823
 
              Baa    -0.0042    -2.250    -0.803    -0.751  0.7253 -0.6624  0.1876
    17 H(1)   Bbb    -0.0024    -1.302    -0.465    -0.434 -0.2321  0.0213  0.9725
              Bcc     0.0067     3.552     1.268     1.185  0.6482  0.7488  0.1383
 
              Baa    -0.0082    -4.363    -1.557    -1.455  0.3637 -0.6133  0.7011
    18 H(1)   Bbb    -0.0043    -2.300    -0.821    -0.767  0.8413 -0.1069 -0.5299
              Bcc     0.0125     6.663     2.377     2.222  0.4000  0.7825  0.4771
 
              Baa    -0.0074    -3.964    -1.415    -1.322  0.5340  0.2923  0.7934
    19 H(1)   Bbb    -0.0040    -2.118    -0.756    -0.706  0.8416 -0.0940 -0.5318
              Bcc     0.0114     6.082     2.170     2.029 -0.0809  0.9517 -0.2962
 
              Baa    -0.0039    -2.071    -0.739    -0.691 -0.2020  0.4314  0.8793
    20 H(1)   Bbb    -0.0027    -1.445    -0.516    -0.482  0.8926 -0.2883  0.3465
              Bcc     0.0066     3.516     1.255     1.173  0.4029  0.8549 -0.3268
 
              Baa    -0.0064    -3.408    -1.216    -1.137  0.8080 -0.4906 -0.3262
    21 H(1)   Bbb    -0.0043    -2.276    -0.812    -0.759  0.5878  0.6342  0.5023
              Bcc     0.0107     5.684     2.028     1.896 -0.0396 -0.5976  0.8008
 
              Baa    -0.0065    -3.446    -1.230    -1.150  0.9439  0.2129 -0.2524
    22 H(1)   Bbb    -0.0043    -2.287    -0.816    -0.763 -0.2911  0.8972 -0.3320
              Bcc     0.0107     5.733     2.046     1.912  0.1558  0.3869  0.9089
 
              Baa    -0.0039    -2.081    -0.743    -0.694 -0.3500 -0.5220  0.7778
    23 H(1)   Bbb    -0.0027    -1.425    -0.508    -0.475  0.9315 -0.1060  0.3480
              Bcc     0.0066     3.506     1.251     1.169 -0.0992  0.8463  0.5234
 
              Baa    -0.0072    -3.825    -1.365    -1.276  0.3733 -0.6204  0.6897
    24 H(1)   Bbb    -0.0037    -1.995    -0.712    -0.666  0.8316 -0.1057 -0.5452
              Bcc     0.0109     5.820     2.077     1.941  0.4111  0.7771  0.4765
 
              Baa    -0.0079    -4.192    -1.496    -1.398  0.5197  0.2757  0.8086
    25 H(1)   Bbb    -0.0040    -2.147    -0.766    -0.716  0.8523 -0.1013 -0.5132
              Bcc     0.0119     6.339     2.262     2.114 -0.0596  0.9559 -0.2876
 
              Baa    -0.0043    -2.269    -0.810    -0.757  0.9017  0.3109  0.3004
    26 H(1)   Bbb    -0.0024    -1.278    -0.456    -0.426 -0.2645 -0.1530  0.9522
              Bcc     0.0066     3.548     1.266     1.183 -0.3420  0.9380  0.0557
 
              Baa    -0.0059    -3.133    -1.118    -1.045  0.7847  0.2822 -0.5519
    27 H(1)   Bbb    -0.0043    -2.310    -0.824    -0.771  0.2280  0.6966  0.6803
              Bcc     0.0102     5.443     1.942     1.816 -0.5764  0.6597 -0.4823
 
              Baa    -0.0007    -0.031    -0.011    -0.010  0.0817  0.9753 -0.2052
    28 S(33)  Bbb    -0.0007    -0.029    -0.010    -0.010  0.0953  0.1973  0.9757
              Bcc     0.0015     0.060     0.021     0.020  0.9921 -0.0993 -0.0768
 
              Baa    -0.0008     0.060     0.021     0.020 -0.1745 -0.1174  0.9776
    29 O(17)  Bbb    -0.0008     0.059     0.021     0.020  0.2123  0.9650  0.1538
              Bcc     0.0016    -0.119    -0.043    -0.040  0.9615 -0.2344  0.1435
 
              Baa    -0.0007     0.050     0.018     0.017  0.2369  0.9715  0.0119
    30 O(17)  Bbb    -0.0006     0.046     0.016     0.015  0.2985 -0.0844  0.9507
              Bcc     0.0013    -0.095    -0.034    -0.032  0.9245 -0.2217 -0.3100
 
              Baa    -0.0003    -0.045    -0.016    -0.015  0.0333 -0.2359  0.9712
    31 C(13)  Bbb    -0.0003    -0.044    -0.016    -0.015  0.0524  0.9708  0.2340
              Bcc     0.0007     0.089     0.032     0.030  0.9981 -0.0431 -0.0447
 
              Baa    -0.0003    -0.167    -0.060    -0.056 -0.0629 -0.2335  0.9703
    32 H(1)   Bbb    -0.0003    -0.166    -0.059    -0.056 -0.0527  0.9717  0.2304
              Bcc     0.0006     0.334     0.119     0.111  0.9966  0.0366  0.0734
 
              Baa    -0.0003    -0.144    -0.051    -0.048  0.0194 -0.0432  0.9989
    33 H(1)   Bbb    -0.0003    -0.144    -0.051    -0.048  0.1582  0.9866  0.0395
              Bcc     0.0005     0.287     0.103     0.096  0.9872 -0.1573 -0.0260
 
              Baa    -0.0003    -0.153    -0.055    -0.051  0.1410 -0.5460  0.8259
    34 H(1)   Bbb    -0.0003    -0.152    -0.054    -0.051  0.0644  0.8375  0.5427
              Bcc     0.0006     0.305     0.109     0.102  0.9879  0.0233 -0.1532
 

 ---------------------------------------------------------------------------------

 No NMR shielding tensors so no spin-rotation constants.
 Leave Link  601 at Wed Jun 12 15:31:54 2019, MaxMem=  8053063680 cpu:               0.0 elap:               0.3
 (Enter /data2/g16/g16/l9999.exe)
 1\1\GINC-CU06\SP\UPBE1PBE\Gen\C10H18N1O3S2(2)\ROOT\12-Jun-2019\0\\#p g
 en 6d pbe1pbe\\start preoptimized\\0,2\O,0,-3.656982,0.162249,1.066701
 \N,0,-2.646931,0.046069,0.304221\C,0,-2.171833,-1.267829,-0.173232\C,0
 ,-0.859083,-0.866792,-0.775939\C,0,-0.594804,0.437974,-0.647188\C,0,0.
 610445,1.120076,-1.193688\S,0,1.947867,1.452161,0.033285\C,0,-1.703106
 ,1.165435,0.088041\C,0,-1.289336,1.74311,1.443311\C,0,-2.380699,2.2412
 54,-0.768614\C,0,-3.145301,-1.830744,-1.21268\C,0,-2.029442,-2.225264,
 1.014931\H,0,-0.202433,-1.581674,-1.266213\H,0,1.067089,0.533949,-1.99
 2342\H,0,0.383048,2.118395,-1.583368\H,0,-0.758815,0.99874,2.041919\H,
 0,-0.636983,2.613265,1.312761\H,0,-2.190628,2.053391,1.980322\H,0,-3.2
 94992,2.577735,-0.265646\H,0,-1.725885,3.10993,-0.901869\H,0,-2.650398
 ,1.848468,-1.753586\H,0,-3.235885,-1.155758,-2.072764\H,0,-2.795784,-2
 .808133,-1.570776\H,0,-4.134369,-1.955848,-0.760238\H,0,-3.002551,-2.3
 32814,1.50617\H,0,-1.692377,-3.209213,0.668768\H,0,-1.305209,-1.84765,
 1.740599\S,0,2.753123,-0.529188,0.104576\O,0,2.325632,-1.20749,1.34742
 4\O,0,2.496839,-1.166762,-1.209259\C,0,4.510088,-0.18558,0.236546\H,0,
 4.670952,0.426218,1.128487\H,0,4.988013,-1.161987,0.347306\H,0,4.83039
 8,0.323114,-0.671695\\Version=AM64L-G16RevB.01\State=2-A\HF=-1467.5481
 568\S2=0.755015\S2-1=0.\S2A=0.750017\RMSD=7.959e-09\Dipole=1.6295666,0
 .7266733,-0.9000993\Quadrupole=2.8473372,1.3611506,-4.2084878,3.902649
 6,5.3269031,-0.474177\PG=C01 [X(C10H18N1O3S2)]\\@


 HE THAT FOLLOWS NATURE IS NEVER LOST.

                             -- BACON
 Elapsed time:       0 days  0 hours  2 minutes 39.5 seconds.
 File lengths (MBytes):  RWF=    181 Int=      0 D2E=      0 Chk=     15 Scr=      1
 Normal termination of Gaussian 16 at Wed Jun 12 15:31:54 2019.
