 Entering Gaussian System, Link 0=g16
 AtFile(1): /home/malgo/Basis_sets/n07d_pbe0.gbs
            -H 0
             6-31G
             S   1 1.00       0.000000000000
                  0.4000000000D+00  0.10000000D+01
             P   1 1.00       0.000000000000
                  0.7500000000D+00  0.10000000D+01
             ****
             -He 0
             6-31+G**
             ****
             -Li 0
             6-31+G**
             ****
             -Be 0
             6-31+G**
             ****
             -B 0
             6-31G
             S   1 1.00       0.000000000000
                  0.7000000000D+01  0.1000000000D+01
             P   1 1.00       0.000000000000
                  0.3500000000D-01  0.1000000000D+01
             D   1 1.00
                  0.3430000000D+00  0.1000000000D+01
             ****
             -C 0
             6-31G
             S   1 1.00       0.000000000000
                  0.8700000000D+01  0.1000000000D+01
             P   1 1.00       0.000000000000
                  0.5000000000D-01  0.1000000000D+01
             D   1 1.00
                  0.8200000000D+00  0.1000000000D+01
             ****
             -N 0
             6-31G
             S   1 1.00       0.000000000000
                  0.1370000000D+02  0.1000000000D+01
             P   1 1.00       0.000000000000
                  0.5300000000D-01  0.1000000000D+01
             D   1 1.00       0.000000000000
                  0.1015000000D+01  0.1000000000D+01
             ****
             -O 0
             6-31G
             S   1 1.00
                  0.1600000000D+02  0.1000000000D+01
             P   1 1.00       0.000000000000
                  0.6500000000D-01  0.1000000000D+01
             D   1 1.00        0.000000000000
                  0.1190000000D+01  0.1000000000D+01
             D   1 1.00        0.000000000000
                  0.1800000000D+00  0.1000000000D+01
             ****
             -F 0
             6-31G
             S   1 1.00
                  0.1770000000D+02  0.1000000000D+01
             P   1 1.00       0.000000000000
                  0.8300000000D-01  0.1000000000D+01
             D   1 1.00       0.000000000000
                  1.3700000000D+00  0.1000000000D+01
             D   1 1.00       0.000000000000
                  0.2300000000D+00  0.1000000000D+01
             ****
             -Ne 0
             6-31+G**
             ****
             -Na 0
             6-31+G**
             ****
             -Mg 0
             6-31+G**
             ****
             -Al 0
             6-31G
             S   1 1.00      0.000000000000
                  0.3100000000D+01  0.1000000000D+01
             P   1 1.00      0.000000000000
                  0.1500000000D-01  0.1000000000D+01
             D   1 1.00      0.000000000000
                  0.1890000000D+00  0.1000000000D+01
             ****
             -Si 0
             6-31G
             S   1 1.00      0.000000000000
                  0.5000000000D+01  0.1000000000D+01
             P   1 1.00       0.000000000000
                  0.3300000000D-01  0.1000000000D+01
             D   1 1.0        0.000000000000
                  0.2750000000D+00  0.1000000000D+01
             ****
             -P  0
             6-31G
             S   1 1.00       0.000000000000
                  0.6300000000D+01  0.1000000000D+01
             P   1 1.00       0.000000000000
                  0.3500000000D-01  0.1000000000D+01
             D   1 1.00       0.000000000000
                  0.3730000000D+00  0.1000000000D+01
             ****
             -S  0
             6-31G
             S   1  1.00      0.000000000000
                  0.7500000000D+01  0.1000000000D+01
             P   1 1.00       0.000000000000
                  0.4100000000D-01  0.1000000000D+01
             D   1 1.00       0.000000000000
                  0.4790000000D+00  0.1000000000D+01
             ****
            -Cl 0
             6-31G
             S   1 1.00       0.000000000000
                  0.8500000000D+01  0.1000000000D+01
             P   1 1.00       0.000000000000
                  0.4800000000D-01  0.1000000000D+01
             D   1 1.00       0.000000000000
                  0.6000000000D+00  0.1000000000D+01
             D   1 1.00       0.000000000000
                  0.1960000000D+00  0.1000000000D+01
             ****
            -Br 0
             S   3 1.00       0.000000000000
                  0.4721881000D+01  0.1749732514D+00
                  0.2257555000D+01 -0.7074172290D+00
                  0.3896080000D+00  0.1258999543D+01
             S   1 1.00       0.000000000000
                  0.1471340000D+00  0.1000000000D+01
             P   3 1.00       0.000000000000
                  0.1896942000D+01 -0.2464576731D+00
                  0.9108990000D+00  0.3623179892D+00
                  0.3168550000D+00  0.8338469725D+00
             P   1 1.00       0.000000000000
                  0.1095030000D+00  0.1000000000D+01
             P   1 1.00       0.000000000000
                  0.3609700000D-01  0.1000000000D+01
             D   1 1.00
                  0.4750000000D+00  0.1000000000D+01
             D   1 1.00
                  0.1280000000D+00  0.1000000000D+01
             ****
            -I   0
             S   3 1.00       0.000000000000
                  0.2122765000D+01  0.2063429899D+01
                  0.1770481000D+01 -0.2869526473D+01
                  0.3130840000D+00  0.1404747074D+01
             S   1 1.00       0.000000000000
                  0.1320000000D+00  0.1000000000D+01
             P   3 1.00       0.000000000000
                  0.2432887000D+01  0.7732753148D+00
                  0.2137249000D+01 -0.1020833156D+01
                  0.3145460000D+00  0.1095666871D+01
             P   1 1.00       0.000000000000
                  0.1049450000D+00  0.1000000000D+01
             P   1 1.00       0.000000000000
                  0.3264100000D-01  0.1000000000D+01
             D   1 1.00
                  0.300000000          1.00000000
             D   1 1.00
                  0.090000000          1.00000000
             ****
             -Zn 0
             SP   6 1.00       0.000000000000
                  0.6936492000D+02 -0.4440098182D-02 -0.7689261805D-02
                  0.2362082000D+02  0.7505253308D-01 -0.2997981924D-01
                  0.1018471000D+02  0.2533111104D+00  0.7082410821D-01
                  0.4334082000D+01 -0.2881897118D+00  0.4046140897D+00
                  0.1810918000D+01 -0.7267052298D+00  0.4882324876D+00
                  0.7148410000D+00 -0.2133439088D+00  0.1751969956D+00
             SP   3 1.00       0.000000000000
                  0.2823842000D+01  0.4898545031D-01 -0.1586762981D+00
                  0.1039543000D+01  0.2592794075D+00  0.8379326898D-01
                  0.1432640000D+00 -0.1115711463D+01  0.9840546881D+00
             SP   1 1.00       0.000000000000
                  0.4929600000D-01  0.1000000000D+01  0.1000000000D+01
             S    1 1.00       0.000000000000
                  0.1620000000D+00  0.1000000000D+01
             D    3 1.00       0.000000000000
                  0.3370764000D+02  0.9262647815D-01
                  0.9061106000D+01  0.4002979920D+00
                  0.2738383000D+01  0.6896607863D+00
             D    1 1.00
                  0.2440000000D+01  0.1000000000D+01
             D    1 1.00       0.000000000000
                  0.7302940000D+00  0.1000000000D+01
             D    1 1.00       0.000000000000
                  0.1620000000D+00  0.1000000000D+01
            ****
 Initial command:
 /data2/g16/g16/l1.exe "/tmp/Gau-20675.inp" -scrdir="/tmp/"
 Entering Link 1 = /data2/g16/g16/l1.exe PID=     20676.
  
 Copyright (c) 1988-2017, Gaussian, Inc.  All Rights Reserved.
  
 This is part of the Gaussian(R) 16 program.  It is based on
 the Gaussian(R) 09 system (copyright 2009, Gaussian, Inc.),
 the Gaussian(R) 03 system (copyright 2003, Gaussian, Inc.),
 the Gaussian(R) 98 system (copyright 1998, Gaussian, Inc.),
 the Gaussian(R) 94 system (copyright 1995, Gaussian, Inc.),
 the Gaussian 92(TM) system (copyright 1992, Gaussian, Inc.),
 the Gaussian 90(TM) system (copyright 1990, Gaussian, Inc.),
 the Gaussian 88(TM) system (copyright 1988, Gaussian, Inc.),
 the Gaussian 86(TM) system (copyright 1986, Carnegie Mellon
 University), and the Gaussian 82(TM) system (copyright 1983,
 Carnegie Mellon University). Gaussian is a federally registered
 trademark of Gaussian, Inc.
  
 This software contains proprietary and confidential information,
 including trade secrets, belonging to Gaussian, Inc.
  
 This software is provided under written license and may be
 used, copied, transmitted, or stored only in accord with that
 written license.
  
 The following legend is applicable only to US Government
 contracts under FAR:
  
                    RESTRICTED RIGHTS LEGEND
  
 Use, reproduction and disclosure by the US Government is
 subject to restrictions as set forth in subparagraphs (a)
 and (c) of the Commercial Computer Software - Restricted
 Rights clause in FAR 52.227-19.
  
 Gaussian, Inc.
 340 Quinnipiac St., Bldg. 40, Wallingford CT 06492
  
  
 ---------------------------------------------------------------
 Warning -- This program may not be used in any manner that
 competes with the business of Gaussian, Inc. or will provide
 assistance to any competitor of Gaussian, Inc.  The licensee
 of this program is prohibited from giving any competitor of
 Gaussian, Inc. access to this program.  By using this program,
 the user acknowledges that Gaussian, Inc. is engaged in the
 business of creating and licensing software in the field of
 computational chemistry and represents and warrants to the
 licensee that it is not a competitor of Gaussian, Inc. and that
 it will not use this program in any manner prohibited above.
 ---------------------------------------------------------------
  

 Cite this work as:
 Gaussian 16, Revision B.01,
 M. J. Frisch, G. W. Trucks, H. B. Schlegel, G. E. Scuseria, 
 M. A. Robb, J. R. Cheeseman, G. Scalmani, V. Barone, 
 G. A. Petersson, H. Nakatsuji, X. Li, M. Caricato, A. V. Marenich, 
 J. Bloino, B. G. Janesko, R. Gomperts, B. Mennucci, H. P. Hratchian, 
 J. V. Ortiz, A. F. Izmaylov, J. L. Sonnenberg, D. Williams-Young, 
 F. Ding, F. Lipparini, F. Egidi, J. Goings, B. Peng, A. Petrone, 
 T. Henderson, D. Ranasinghe, V. G. Zakrzewski, J. Gao, N. Rega, 
 G. Zheng, W. Liang, M. Hada, M. Ehara, K. Toyota, R. Fukuda, 
 J. Hasegawa, M. Ishida, T. Nakajima, Y. Honda, O. Kitao, H. Nakai, 
 T. Vreven, K. Throssell, J. A. Montgomery, Jr., J. E. Peralta, 
 F. Ogliaro, M. J. Bearpark, J. J. Heyd, E. N. Brothers, K. N. Kudin, 
 V. N. Staroverov, T. A. Keith, R. Kobayashi, J. Normand, 
 K. Raghavachari, A. P. Rendell, J. C. Burant, S. S. Iyengar, 
 J. Tomasi, M. Cossi, J. M. Millam, M. Klene, C. Adamo, R. Cammi, 
 J. W. Ochterski, R. L. Martin, K. Morokuma, O. Farkas, 
 J. B. Foresman, and D. J. Fox, Gaussian, Inc., Wallingford CT, 2016.
 
 ******************************************
 Gaussian 16:  AM64L-G16RevB.01 20-Dec-2017
                12-Jun-2019 
 ******************************************
 %chk=MTN_PBE0_-0.10.chk
 %mem=60GB
 %nprocshared=12
 Will use up to   12 processors via shared memory.
 -----------------
 #p gen 6d pbe1pbe
 -----------------
 1/38=1,172=1/1;
 2/12=2,17=6,18=5,40=1/2;
 3/5=7,8=2,11=2,25=1,30=1,74=-13/1,2,3;
 4//1;
 5/5=2,38=5/2;
 6/7=2,8=2,9=2,10=2,28=1/1;
 99/5=1,9=1/99;
 Leave Link    1 at Wed Jun 12 15:23:10 2019, MaxMem=  8053063680 cpu:               0.0 elap:               0.0
 (Enter /data2/g16/g16/l101.exe)
 ------------------
 start preoptimized
 ------------------
 Symbolic Z-matrix:
 Charge =  0 Multiplicity = 2
 O                    -3.73298   0.19425   0.9267 
 N                    -2.61893   0.03807   0.36022 
 C                    -2.16383  -1.26783  -0.16123 
 C                    -0.87508  -0.85479  -0.80794 
 C                    -0.6028    0.44597  -0.65519 
 C                     0.60645   1.12408  -1.19769 
 S                     1.94387   1.44416   0.03329 
 C                    -1.69511   1.16543   0.10804 
 C                    -1.24934   1.75911   1.44731 
 C                    -2.4127    2.22525  -0.73261 
 C                    -3.1933   -1.81474  -1.15268 
 C                    -1.94944  -2.24926   0.99493 
 H                    -0.23043  -1.56567  -1.31821 
 H                     1.06309   0.53795  -2.00034 
 H                     0.38705   2.1264   -1.58337 
 H                    -0.69082   1.02674   2.03792 
 H                    -0.61298   2.63727   1.29676 
 H                    -2.13863   2.06539   2.00832 
 H                    -3.31099   2.55374  -0.20165 
 H                    -1.76989   3.09793  -0.89387 
 H                    -2.7104    1.82047  -1.70559 
 H                    -3.33189  -1.12776  -1.99276 
 H                    -2.86778  -2.78413  -1.54278 
 H                    -4.15437  -1.94385  -0.64424 
 H                    -2.89055  -2.38481   1.53817 
 H                    -1.62038  -3.22121   0.61277 
 H                    -1.18921  -1.87565   1.6886 
 S                     2.75712  -0.53319   0.10858 
 O                     2.33363  -1.21149   1.35142 
 O                     2.50484  -1.17876  -1.20526 
 C                     4.51009  -0.17358   0.24455 
 H                     4.66295   0.44222   1.13249 
 H                     4.99601  -1.14599   0.35931 
 H                     4.8304    0.33111  -0.6677 
 
 ITRead=  0  0  0  0  0  0  0  0  0  0  0  0  0  0  0  0  0  0  0  0
 ITRead=  0  0  0  0  0  0  0  0  0  0  0  0  0  0
 MicOpt= -1 -1 -1 -1 -1 -1 -1 -1 -1 -1 -1 -1 -1 -1 -1 -1 -1 -1 -1 -1
 MicOpt= -1 -1 -1 -1 -1 -1 -1 -1 -1 -1 -1 -1 -1 -1
 NAtoms=     34 NQM=       34 NQMF=       0 NMMI=      0 NMMIF=      0
                NMic=       0 NMicF=      0.
                    Isotopes and Nuclear Properties:
 (Nuclear quadrupole moments (NQMom) in fm**2, nuclear magnetic moments (NMagM)
  in nuclear magnetons)

  Atom         1           2           3           4           5           6           7           8           9          10
 IAtWgt=          16          14          12          12          12          12          32          12          12          12
 AtmWgt=  15.9949146  14.0030740  12.0000000  12.0000000  12.0000000  12.0000000  31.9720718  12.0000000  12.0000000  12.0000000
 NucSpn=           0           2           0           0           0           0           0           0           0           0
 AtZEff=   0.0000000   0.0000000   0.0000000   0.0000000   0.0000000   0.0000000   0.0000000   0.0000000   0.0000000   0.0000000
 NQMom=    0.0000000   2.0440000   0.0000000   0.0000000   0.0000000   0.0000000   0.0000000   0.0000000   0.0000000   0.0000000
 NMagM=    0.0000000   0.4037610   0.0000000   0.0000000   0.0000000   0.0000000   0.0000000   0.0000000   0.0000000   0.0000000
 AtZNuc=   8.0000000   7.0000000   6.0000000   6.0000000   6.0000000   6.0000000  16.0000000   6.0000000   6.0000000   6.0000000

  Atom        11          12          13          14          15          16          17          18          19          20
 IAtWgt=          12          12           1           1           1           1           1           1           1           1
 AtmWgt=  12.0000000  12.0000000   1.0078250   1.0078250   1.0078250   1.0078250   1.0078250   1.0078250   1.0078250   1.0078250
 NucSpn=           0           0           1           1           1           1           1           1           1           1
 AtZEff=   0.0000000   0.0000000   0.0000000   0.0000000   0.0000000   0.0000000   0.0000000   0.0000000   0.0000000   0.0000000
 NQMom=    0.0000000   0.0000000   0.0000000   0.0000000   0.0000000   0.0000000   0.0000000   0.0000000   0.0000000   0.0000000
 NMagM=    0.0000000   0.0000000   2.7928460   2.7928460   2.7928460   2.7928460   2.7928460   2.7928460   2.7928460   2.7928460
 AtZNuc=   6.0000000   6.0000000   1.0000000   1.0000000   1.0000000   1.0000000   1.0000000   1.0000000   1.0000000   1.0000000

  Atom        21          22          23          24          25          26          27          28          29          30
 IAtWgt=           1           1           1           1           1           1           1          32          16          16
 AtmWgt=   1.0078250   1.0078250   1.0078250   1.0078250   1.0078250   1.0078250   1.0078250  31.9720718  15.9949146  15.9949146
 NucSpn=           1           1           1           1           1           1           1           0           0           0
 AtZEff=   0.0000000   0.0000000   0.0000000   0.0000000   0.0000000   0.0000000   0.0000000   0.0000000   0.0000000   0.0000000
 NQMom=    0.0000000   0.0000000   0.0000000   0.0000000   0.0000000   0.0000000   0.0000000   0.0000000   0.0000000   0.0000000
 NMagM=    2.7928460   2.7928460   2.7928460   2.7928460   2.7928460   2.7928460   2.7928460   0.0000000   0.0000000   0.0000000
 AtZNuc=   1.0000000   1.0000000   1.0000000   1.0000000   1.0000000   1.0000000   1.0000000  16.0000000   8.0000000   8.0000000

  Atom        31          32          33          34
 IAtWgt=          12           1           1           1
 AtmWgt=  12.0000000   1.0078250   1.0078250   1.0078250
 NucSpn=           0           1           1           1
 AtZEff=   0.0000000   0.0000000   0.0000000   0.0000000
 NQMom=    0.0000000   0.0000000   0.0000000   0.0000000
 NMagM=    0.0000000   2.7928460   2.7928460   2.7928460
 AtZNuc=   6.0000000   1.0000000   1.0000000   1.0000000
 Leave Link  101 at Wed Jun 12 15:23:10 2019, MaxMem=  8053063680 cpu:               0.0 elap:               0.1
 (Enter /data2/g16/g16/l202.exe)
                          Input orientation:                          
 ---------------------------------------------------------------------
 Center     Atomic      Atomic             Coordinates (Angstroms)
 Number     Number       Type             X           Y           Z
 ---------------------------------------------------------------------
      1          8           0       -3.732982    0.194249    0.926701
      2          7           0       -2.618931    0.038069    0.360221
      3          6           0       -2.163833   -1.267829   -0.161232
      4          6           0       -0.875083   -0.854792   -0.807939
      5          6           0       -0.602804    0.445974   -0.655188
      6          6           0        0.606445    1.124076   -1.197688
      7         16           0        1.943867    1.444161    0.033285
      8          6           0       -1.695106    1.165435    0.108041
      9          6           0       -1.249336    1.759110    1.447311
     10          6           0       -2.412699    2.225254   -0.732614
     11          6           0       -3.193301   -1.814744   -1.152680
     12          6           0       -1.949442   -2.249264    0.994931
     13          1           0       -0.230433   -1.565674   -1.318213
     14          1           0        1.063089    0.537949   -2.000342
     15          1           0        0.387048    2.126395   -1.583368
     16          1           0       -0.690815    1.026740    2.037919
     17          1           0       -0.612983    2.637265    1.296761
     18          1           0       -2.138628    2.065391    2.008322
     19          1           0       -3.310992    2.553735   -0.201646
     20          1           0       -1.769885    3.097930   -0.893869
     21          1           0       -2.710398    1.820468   -1.705586
     22          1           0       -3.331885   -1.127758   -1.992764
     23          1           0       -2.867784   -2.784133   -1.542776
     24          1           0       -4.154369   -1.943848   -0.644238
     25          1           0       -2.890551   -2.384814    1.538170
     26          1           0       -1.620377   -3.221213    0.612768
     27          1           0       -1.189209   -1.875650    1.688599
     28         16           0        2.757123   -0.533188    0.108576
     29          8           0        2.333632   -1.211490    1.351424
     30          8           0        2.504839   -1.178762   -1.205259
     31          6           0        4.510088   -0.173580    0.244546
     32          1           0        4.662952    0.442218    1.132487
     33          1           0        4.996013   -1.145987    0.359306
     34          1           0        4.830398    0.331114   -0.667695
 ---------------------------------------------------------------------
                    Distance matrix (angstroms):
                    1          2          3          4          5
     1  O    0.000000
     2  N    1.259524   0.000000
     3  C    2.404891   1.477971   0.000000
     4  C    3.503862   2.280966   1.499902   0.000000
     5  C    3.516213   2.293951   2.370216   1.337707   0.000000
     6  C    4.920186   3.742932   3.803931   2.502548   1.488762
     7  S    5.881079   4.785719   4.926046   3.733540   2.820621
     8  C    2.401322   1.479189   2.492586   2.364905   1.514353
     9  C    2.981329   2.453475   3.547686   3.472564   2.561802
    10  C    2.936231   2.453691   3.548245   3.443344   2.539203
    11  C    2.941281   2.460018   1.530323   2.532684   3.474049
    12  C    3.025959   2.466367   1.531630   2.519750   3.435205
    13  H    4.517169   3.330774   2.272741   1.086879   2.150579
    14  H    5.629210   4.402205   4.129913   2.667970   2.143151
    15  H    5.196949   4.144219   4.477747   3.328925   2.159893
    16  H    3.344043   2.740396   3.503012   3.416581   2.756422
    17  H    3.979908   3.414199   4.447543   4.085697   2.934615
    18  H    2.685711   2.656494   3.977179   4.249158   3.474990
    19  H    2.649229   2.668936   3.990233   4.233119   3.461595
    20  H    3.949631   3.414143   4.444300   4.053648   2.907218
    21  H    3.258712   2.729995   3.495903   3.366180   2.726632
    22  H    3.229839   2.721028   2.176804   2.741204   3.422517
    23  H    3.964548   3.412939   2.168730   2.869355   4.043704
    24  H    2.686424   2.700834   2.156972   3.459271   4.280769
    25  H    2.781214   2.707712   2.159570   3.450696   4.249467
    26  H    4.028279   3.418159   2.170283   2.858989   4.011412
    27  H    3.366861   2.733315   2.177433   2.715424   3.350693
    28  S    6.581790   5.412173   4.982801   3.759834   3.582067
    29  O    6.241818   5.203053   4.745365   3.884062   3.923816
    30  O    6.733559   5.494035   4.784812   3.418580   3.549618
    31  C    8.279422   7.133098   6.775194   5.529181   5.228292
    32  H    8.402115   7.333863   7.155625   6.009769   5.560934
    33  H    8.849493   7.706449   7.179777   5.993081   5.908493
    34  H    8.711619   7.525622   7.192523   5.829113   5.434430
                    6          7          8          9         10
     6  C    0.000000
     7  S    1.845656   0.000000
     8  C    2.646465   3.650397   0.000000
     9  C    3.292903   3.506452   1.531276   0.000000
    10  C    3.247171   4.491812   1.531293   2.514513   0.000000
    11  C    4.803827   6.198183   3.565876   4.828187   4.136107
    12  C    4.766504   5.451973   3.537150   4.094125   4.818748
    13  H    2.819512   3.951359   3.411513   4.443025   4.413201
    14  H    1.093765   2.394291   3.527982   4.327223   4.066354
    15  H    1.096142   2.345783   2.849504   3.463765   2.927821
    16  H    3.487336   3.336817   2.179969   1.094134   3.475223
    17  H    3.162123   3.091497   2.179525   1.094882   2.743555
    18  H    4.324350   4.577495   2.148884   1.095163   2.759239
    19  H    4.287463   5.375862   2.152759   2.756975   1.093964
    20  H    3.104086   4.169715   2.178062   2.746732   1.095799
    21  H    3.427006   4.982716   2.179250   3.475518   1.095057
    22  H    4.605795   6.209122   3.514422   4.950266   3.698050
    23  H    5.240558   6.596546   4.438407   5.674597   5.094843
    24  H    5.690678   7.009003   4.035039   5.150310   4.519141
    25  H    5.659170   6.348017   4.009816   4.458021   5.161156
    26  H    5.207497   5.899606   4.416222   5.063373   5.665848
    27  H    4.533584   4.855654   3.464433   3.643256   4.916972
    28  S    3.013016   2.139384   4.765256   4.806096   5.919769
    29  O    3.864714   2.990299   4.840093   4.655246   6.219492
    30  O    2.984463   2.954388   4.985936   5.455369   5.999408
    31  C    4.359172   3.040922   6.349490   6.192972   7.391497
    32  H    4.727568   3.099283   6.480543   6.065350   7.531444
    33  H    5.181286   4.016311   7.083564   6.973358   8.212586
    34  H    4.330296   3.172114   6.624203   6.593602   7.486951
                   11         12         13         14         15
    11  C    0.000000
    12  C    2.519569   0.000000
    13  H    2.977923   2.961912   0.000000
    14  H    4.936654   5.080901   2.561978   0.000000
    15  H    5.342000   5.590456   3.752727   1.775967   0.000000
    16  H    4.951403   3.661170   4.265699   4.429746   3.935067
    17  H    5.698964   5.074977   4.964789   4.252909   3.091309
    18  H    5.114657   4.436102   5.281257   5.352892   4.391241
    19  H    4.472351   5.133655   5.263658   5.141137   3.970803
    20  H    5.121275   5.673825   4.929420   3.975365   2.464072
    21  H    3.708594   4.943133   4.215002   3.996366   3.114916
    22  H    1.094028   3.477822   3.204028   4.700046   4.958586
    23  H    1.094464   2.751253   2.913879   5.166949   5.891423
    24  H    1.094912   2.764391   3.999316   5.934661   6.170357
    25  H    2.767185   1.095066   3.988250   6.057630   6.390435
    26  H    2.751191   1.094996   2.898524   5.306659   6.119614
    27  H    3.477493   1.094859   3.171160   4.950413   5.404324
    28  S    6.216164   5.087465   3.468032   2.909402   3.943769
    29  O    6.097659   4.421401   3.718446   3.988628   4.852182
    30  O    5.733763   5.082069   2.764810   2.378633   3.943611
    31  C    7.999241   6.826205   5.181957   4.174637   5.062669
    32  H    8.487436   7.140501   5.829475   4.773133   5.338134
    33  H    8.354532   7.061203   5.505084   4.885844   5.977041
    34  H    8.319835   7.442372   5.443619   4.001418   4.879021
                   16         17         18         19         20
    16  H    0.000000
    17  H    1.774588   0.000000
    18  H    1.782087   1.777907   0.000000
    19  H    3.769972   3.087305   2.548897   0.000000
    20  H    3.748280   2.519820   3.102390   1.774917   0.000000
    21  H    4.326956   3.752385   3.765637   1.777703   1.781954
    22  H    5.278591   5.691116   5.256306   4.094134   4.637225
    23  H    5.664214   6.522166   6.054738   5.521585   6.018731
    24  H    5.292879   6.107003   5.212800   4.597328   5.582795
    25  H    4.089901   5.519680   4.537704   5.252904   6.101736
    26  H    4.576051   5.983682   5.492207   6.072189   6.497990
    27  H    2.965517   4.566396   4.066377   5.262551   5.634077
    28  S    4.247825   4.777151   5.859183   6.815229   5.889288
    29  O    3.824687   4.847519   5.583061   6.960656   6.360133
    30  O    5.059115   5.526570   6.512558   6.983027   6.054777
    31  C    5.630839   5.937496   7.233901   8.294976   7.171947
    32  H    5.461162   5.716704   7.047217   8.355968   7.248470
    33  H    6.314942   6.830275   7.995956   9.110924   8.084470
    34  H    6.187733   6.229592   7.663949   8.452188   7.160319
                   21         22         23         24         25
    21  H    0.000000
    22  H    3.026674   0.000000
    23  H    4.610166   1.778049   0.000000
    24  H    4.169123   1.777922   1.780098   0.000000
    25  H    5.314020   3.773918   3.106799   2.560194   0.000000
    26  H    5.655215   3.755078   2.528524   3.103682   1.780246
    27  H    5.243643   4.324678   3.752964   3.773454   1.782257
    28  S    6.222915   6.468784   6.279594   7.094041   6.112976
    29  O    6.631766   6.579414   6.156649   6.827384   5.357579
    30  O    6.036920   5.889831   5.617492   6.726452   6.171807
    31  C    7.740456   8.210515   8.027609   8.888003   7.831505
    32  H    8.020008   8.726364   8.618489   9.305655   8.075401
    33  H    8.511898   8.653696   8.254741   9.239760   8.069839
    34  H    7.756223   8.396843   8.350601   9.268335   8.476742
                   26         27         28         29         30
    26  H    0.000000
    27  H    1.775910   0.000000
    28  S    5.161608   4.457826   0.000000
    29  O    4.496530   3.600723   1.477873   0.000000
    30  O    4.949165   4.744055   1.485455   2.562618   0.000000
    31  C    6.856111   6.120810   1.794629   2.653186   2.670833
    32  H    7.291849   6.318984   2.373182   2.865033   3.570726
    33  H    6.938834   6.368391   2.334741   2.841982   2.941919
    34  H    7.474698   6.830637   2.376570   3.562346   2.824345
                   31         32         33         34
    31  C    0.000000
    32  H    1.091336   0.000000
    33  H    1.093100   1.797535   0.000000
    34  H    1.090641   1.811363   1.806651   0.000000
 Stoichiometry    C10H18NO3S2(2)
 Framework group  C1[X(C10H18NO3S2)]
 Deg. of freedom    96
 Full point group                 C1      NOp   1
 Largest Abelian subgroup         C1      NOp   1
 Largest concise Abelian subgroup C1      NOp   1
                         Standard orientation:                         
 ---------------------------------------------------------------------
 Center     Atomic      Atomic             Coordinates (Angstroms)
 Number     Number       Type             X           Y           Z
 ---------------------------------------------------------------------
      1          8           0       -3.732203    0.191121    0.930231
      2          7           0       -2.618585    0.035727    0.362683
      3          6           0       -2.162860   -1.269950   -0.158776
      4          6           0       -0.875127   -0.856000   -0.806924
      5          6           0       -0.603843    0.445058   -0.654898
      6          6           0        0.604260    1.124039   -1.198851
      7         16           0        1.942638    1.445731    0.030663
      8          6           0       -1.696010    1.163820    0.109182
      9          6           0       -1.249416    1.758353    1.447797
     10          6           0       -2.415385    2.222714   -0.731116
     11          6           0       -3.192843   -1.818117   -1.148997
     12          6           0       -1.946439   -2.250794    0.997510
     13          1           0       -0.230364   -1.566490   -1.317601
     14          1           0        1.060612    0.538036   -2.001761
     15          1           0        0.383590    2.126030   -1.584657
     16          1           0       -0.689654    1.026681    2.038095
     17          1           0       -0.613990    2.637017    1.296302
     18          1           0       -2.138412    2.064044    2.009597
     19          1           0       -3.313432    2.550586   -0.199357
     20          1           0       -1.773504    3.095901   -0.893321
     21          1           0       -2.713706    1.817328   -1.703648
     22          1           0       -3.332880   -1.131545   -1.989178
     23          1           0       -2.866864   -2.787354   -1.539085
     24          1           0       -4.153284   -1.947892   -0.639542
     25          1           0       -2.886880   -2.386985    1.541744
     26          1           0       -1.616901   -3.222585    0.615353
     27          1           0       -1.185837   -1.876268    1.690283
     28         16           0        2.757715   -0.530873    0.105819
     29          8           0        2.336075   -1.209117    1.349328
     30          8           0        2.504677   -1.177126   -1.207537
     31          6           0        4.510498   -0.169672    0.239899
     32          1           0        4.663712    0.446569    1.127472
     33          1           0        4.997396   -1.141610    0.354506
     34          1           0        4.829443    0.334988   -0.672839
 ---------------------------------------------------------------------
 Rotational constants (GHZ):           0.7773712           0.2772227           0.2427228
 Leave Link  202 at Wed Jun 12 15:23:10 2019, MaxMem=  8053063680 cpu:               0.0 elap:               0.1
 (Enter /data2/g16/g16/l301.exe)
 General basis read from cards:  (6D, 7F)
 Centers:      13     14     15     16     17     18     19     20     21     22
 Centers:      23     24     25     26     27     32     33     34
 6-31G
 S 1 1.00 0.000000000000
     Exponent=  4.0000000000D-01 Coefficients=  1.0000000000D+00
 P 1 1.00 0.000000000000
     Exponent=  7.5000000000D-01 Coefficients=  1.0000000000D+00
 ****
 Centers:       3      4      5      6      8      9     10     11     12     31
 6-31G
 S 1 1.00 0.000000000000
     Exponent=  8.7000000000D+00 Coefficients=  1.0000000000D+00
 P 1 1.00 0.000000000000
     Exponent=  5.0000000000D-02 Coefficients=  1.0000000000D+00
 D 1 1.00
     Exponent=  8.2000000000D-01 Coefficients=  1.0000000000D+00
 ****
 Centers:       2
 6-31G
 S 1 1.00 0.000000000000
     Exponent=  1.3700000000D+01 Coefficients=  1.0000000000D+00
 P 1 1.00 0.000000000000
     Exponent=  5.3000000000D-02 Coefficients=  1.0000000000D+00
 D 1 1.00 0.000000000000
     Exponent=  1.0150000000D+00 Coefficients=  1.0000000000D+00
 ****
 Centers:       1     29     30
 6-31G
 S 1 1.00
     Exponent=  1.6000000000D+01 Coefficients=  1.0000000000D+00
 P 1 1.00 0.000000000000
     Exponent=  6.5000000000D-02 Coefficients=  1.0000000000D+00
 D 1 1.00 0.000000000000
     Exponent=  1.1900000000D+00 Coefficients=  1.0000000000D+00
 D 1 1.00 0.000000000000
     Exponent=  1.8000000000D-01 Coefficients=  1.0000000000D+00
 ****
 Centers:       7     28
 6-31G
 S 1 1.00 0.000000000000
     Exponent=  7.5000000000D+00 Coefficients=  1.0000000000D+00
 P 1 1.00 0.000000000000
     Exponent=  4.1000000000D-02 Coefficients=  1.0000000000D+00
 D 1 1.00 0.000000000000
     Exponent=  4.7900000000D-01 Coefficients=  1.0000000000D+00
 ****
 Ernie: Thresh=  0.10000D-02 Tol=  0.10000D-05 Strict=F.
 There are   438 symmetry adapted cartesian basis functions of A   symmetry.
 There are   438 symmetry adapted basis functions of A   symmetry.
   438 basis functions,   722 primitive gaussians,   438 cartesian basis functions
    71 alpha electrons       70 beta electrons
       nuclear repulsion energy      1521.1021322437 Hartrees.
 IExCor= 1009 DFT=T Ex+Corr=PBE1PBE ExCW=0 ScaHFX=  0.250000
 ScaDFX=  0.750000  0.750000  1.000000  1.000000 ScalE2=  1.000000  1.000000
 IRadAn=      5 IRanWt=     -1 IRanGd=            0 ICorTp=0 IEmpDi=  4
 NAtoms=   34 NActive=   34 NUniq=   34 SFac= 1.00D+00 NAtFMM=   60 NAOKFM=F Big=F
 Integral buffers will be    131072 words long.
 Raffenetti 2 integral format.
 Two-electron integral symmetry is turned on.
 Leave Link  301 at Wed Jun 12 15:23:11 2019, MaxMem=  8053063680 cpu:               0.0 elap:               0.1
 (Enter /data2/g16/g16/l302.exe)
 NPDir=0 NMtPBC=     1 NCelOv=     1 NCel=       1 NClECP=     1 NCelD=      1
         NCelK=      1 NCelE2=     1 NClLst=     1 CellRange=     0.0.
 One-electron integrals computed using PRISM.
 One-electron integral symmetry used in STVInt
 NBasis=   438 RedAO= T EigKep=  6.53D-05  NBF=   438
 NBsUse=   438 1.00D-06 EigRej= -1.00D+00 NBFU=   438
 Precomputing XC quadrature grid using
 IXCGrd= 4 IRadAn=           5 IRanWt=          -1 IRanGd=           0 AccXCQ= 0.00D+00.
 Generated NRdTot=       0 NPtTot=           0 NUsed=           0 NTot=          32
 NSgBfM=   433   433   433   433   433 MxSgAt=    34 MxSgA2=    34.
 Leave Link  302 at Wed Jun 12 15:23:11 2019, MaxMem=  8053063680 cpu:               0.0 elap:               0.5
 (Enter /data2/g16/g16/l303.exe)
 DipDrv:  MaxL=1.
 Leave Link  303 at Wed Jun 12 15:23:11 2019, MaxMem=  8053063680 cpu:               0.0 elap:               0.1
 (Enter /data2/g16/g16/l401.exe)
 ExpMin= 4.10D-02 ExpMax= 2.19D+04 ExpMxC= 3.30D+03 IAcc=3 IRadAn=         5 AccDes= 0.00D+00
 Harris functional with IExCor= 1009 and IRadAn=       5 diagonalized for initial guess.
 HarFok:  IExCor= 1009 AccDes= 0.00D+00 IRadAn=         5 IDoV= 1 UseB2=F ITyADJ=14
 ICtDFT=  3500011 ScaDFX=  1.000000  1.000000  1.000000  1.000000
 FoFCou: FMM=F IPFlag=           0 FMFlag=      100000 FMFlg1=           0
         NFxFlg=           0 DoJE=T BraDBF=F KetDBF=T FulRan=T
         wScrn=  0.000000 ICntrl=       500 IOpCl=  0 I1Cent=   200000004 NGrid=           0
         NMat0=    1 NMatS0=      1 NMatT0=    0 NMatD0=    1 NMtDS0=    0 NMtDT0=    0
 Petite list used in FoFCou.
 Harris En= -1467.69900049235    
 JPrj=0 DoOrth=F DoCkMO=F.
 Initial guess <Sx>= 0.0000 <Sy>= 0.0000 <Sz>= 0.5000 <S**2>= 0.7500 S= 0.5000
 Leave Link  401 at Wed Jun 12 15:23:13 2019, MaxMem=  8053063680 cpu:               0.0 elap:               1.6
 (Enter /data2/g16/g16/l502.exe)
 Integral symmetry usage will be decided dynamically.
 UHF open shell SCF:
 Using DIIS extrapolation, IDIIS=  1040.
 NGot=  8053063680 LenX=  8052670277 LenY=  8052477992
 Requested convergence on RMS density matrix=1.00D-08 within 128 cycles.
 Requested convergence on MAX density matrix=1.00D-06.
 Requested convergence on             energy=1.00D-06.
 No special actions if energy rises.
 Fock matrices will be formed incrementally for  20 cycles.

 Cycle   1  Pass 1  IDiag  1:
 FoFJK:  IHMeth= 1 ICntrl=       0 DoSepK=F KAlg= 0 I1Cent=           0 FoldK=F
 IRaf= 840000000 NMat=       1 IRICut=       1 DoRegI=T DoRafI=F ISym2E= 0 IDoP0=0 IntGTp=1.
 FoFCou: FMM=F IPFlag=           0 FMFlag=      100000 FMFlg1=           0
         NFxFlg=           0 DoJE=F BraDBF=F KetDBF=F FulRan=T
         wScrn=  0.000000 ICntrl=         0 IOpCl=  1 I1Cent=           0 NGrid=           0
         NMat0=    1 NMatS0=      1 NMatT0=    0 NMatD0=    1 NMtDS0=    0 NMtDT0=    0
 Symmetry not used in FoFCou.
 E= -1466.93574405226    
 DIIS: error= 2.56D-02 at cycle   1 NSaved=   1.
 NSaved= 1 IEnMin= 1 EnMin= -1466.93574405226     IErMin= 1 ErrMin= 2.56D-02
 ErrMax= 2.56D-02  0.00D+00 EMaxC= 1.00D-01 BMatC= 2.97D+00 BMatP= 2.97D+00
 IDIUse=3 WtCom= 7.44D-01 WtEn= 2.56D-01
 Coeff-Com:  0.100D+01
 Coeff-En:   0.100D+01
 Coeff:      0.100D+01
 Gap=     0.222 Goal=   None    Shift=    0.000
 Gap=     0.367 Goal=   None    Shift=    0.000
 GapD=    0.222 DampG=1.000 DampE=0.500 DampFc=0.5000 IDamp=-1.
 Damping current iteration by 5.00D-01
 RMSDP=4.75D-03 MaxDP=4.12D-01              OVMax= 2.95D-01

 Cycle   2  Pass 1  IDiag  1:
 RMSU=  2.37D-03    CP:  9.92D-01
 E= -1467.06234767160     Delta-E=       -0.126603619339 Rises=F Damp=T
 DIIS: error= 1.04D-02 at cycle   2 NSaved=   2.
 NSaved= 2 IEnMin= 2 EnMin= -1467.06234767160     IErMin= 2 ErrMin= 1.04D-02
 ErrMax= 1.04D-02  0.00D+00 EMaxC= 1.00D-01 BMatC= 5.22D-01 BMatP= 2.97D+00
 IDIUse=3 WtCom= 8.96D-01 WtEn= 1.04D-01
 Coeff-Com:  0.226D+00 0.774D+00
 Coeff-En:   0.395D+00 0.605D+00
 Coeff:      0.244D+00 0.756D+00
 Gap=     0.125 Goal=   None    Shift=    0.000
 Gap=     0.185 Goal=   None    Shift=    0.000
 RMSDP=1.68D-03 MaxDP=1.19D-01 DE=-1.27D-01 OVMax= 2.86D-01

 Cycle   3  Pass 1  IDiag  1:
 RMSU=  1.39D-03    CP:  9.82D-01  6.10D-01
 E= -1467.46626917089     Delta-E=       -0.403921499294 Rises=F Damp=F
 DIIS: error= 7.86D-03 at cycle   3 NSaved=   3.
 NSaved= 3 IEnMin= 3 EnMin= -1467.46626917089     IErMin= 3 ErrMin= 7.86D-03
 ErrMax= 7.86D-03  0.00D+00 EMaxC= 1.00D-01 BMatC= 3.56D-01 BMatP= 5.22D-01
 IDIUse=3 WtCom= 9.21D-01 WtEn= 7.86D-02
 Coeff-Com:  0.531D-01 0.446D+00 0.501D+00
 Coeff-En:   0.000D+00 0.000D+00 0.100D+01
 Coeff:      0.489D-01 0.411D+00 0.540D+00
 Gap=     0.143 Goal=   None    Shift=    0.000
 Gap=     0.223 Goal=   None    Shift=    0.000
 RMSDP=9.27D-04 MaxDP=6.39D-02 DE=-4.04D-01 OVMax= 1.08D-01

 Cycle   4  Pass 1  IDiag  1:
 RMSU=  6.19D-04    CP:  9.87D-01  7.32D-01  5.52D-01
 E= -1467.53931764598     Delta-E=       -0.073048475081 Rises=F Damp=F
 DIIS: error= 2.17D-03 at cycle   4 NSaved=   4.
 NSaved= 4 IEnMin= 4 EnMin= -1467.53931764598     IErMin= 4 ErrMin= 2.17D-03
 ErrMax= 2.17D-03  0.00D+00 EMaxC= 1.00D-01 BMatC= 4.08D-02 BMatP= 3.56D-01
 IDIUse=3 WtCom= 9.78D-01 WtEn= 2.17D-02
 Coeff-Com: -0.135D-01 0.704D-01 0.273D+00 0.670D+00
 Coeff-En:   0.000D+00 0.000D+00 0.821D-01 0.918D+00
 Coeff:     -0.132D-01 0.689D-01 0.269D+00 0.675D+00
 Gap=     0.142 Goal=   None    Shift=    0.000
 Gap=     0.202 Goal=   None    Shift=    0.000
 RMSDP=3.06D-04 MaxDP=1.69D-02 DE=-7.30D-02 OVMax= 3.09D-02

 Cycle   5  Pass 1  IDiag  1:
 RMSU=  2.04D-04    CP:  9.86D-01  7.21D-01  6.55D-01  7.18D-01
 E= -1467.54779189963     Delta-E=       -0.008474253649 Rises=F Damp=F
 DIIS: error= 8.97D-04 at cycle   5 NSaved=   5.
 NSaved= 5 IEnMin= 5 EnMin= -1467.54779189963     IErMin= 5 ErrMin= 8.97D-04
 ErrMax= 8.97D-04  0.00D+00 EMaxC= 1.00D-01 BMatC= 4.01D-03 BMatP= 4.08D-02
 IDIUse=3 WtCom= 9.91D-01 WtEn= 8.97D-03
 Coeff-Com: -0.968D-02 0.174D-01 0.124D+00 0.377D+00 0.491D+00
 Coeff-En:   0.000D+00 0.000D+00 0.000D+00 0.000D+00 0.100D+01
 Coeff:     -0.959D-02 0.172D-01 0.123D+00 0.374D+00 0.496D+00
 Gap=     0.143 Goal=   None    Shift=    0.000
 Gap=     0.205 Goal=   None    Shift=    0.000
 RMSDP=1.09D-04 MaxDP=5.39D-03 DE=-8.47D-03 OVMax= 1.25D-02

 Cycle   6  Pass 1  IDiag  1:
 RMSU=  7.01D-05    CP:  9.85D-01  7.24D-01  6.52D-01  7.73D-01  6.28D-01
 E= -1467.54865960615     Delta-E=       -0.000867706523 Rises=F Damp=F
 DIIS: error= 2.43D-04 at cycle   6 NSaved=   6.
 NSaved= 6 IEnMin= 6 EnMin= -1467.54865960615     IErMin= 6 ErrMin= 2.43D-04
 ErrMax= 2.43D-04  0.00D+00 EMaxC= 1.00D-01 BMatC= 4.02D-04 BMatP= 4.01D-03
 IDIUse=3 WtCom= 9.98D-01 WtEn= 2.43D-03
 Coeff-Com: -0.324D-02 0.194D-02 0.344D-01 0.118D+00 0.271D+00 0.578D+00
 Coeff-En:   0.000D+00 0.000D+00 0.000D+00 0.000D+00 0.414D-01 0.959D+00
 Coeff:     -0.323D-02 0.194D-02 0.343D-01 0.117D+00 0.271D+00 0.579D+00
 Gap=     0.145 Goal=   None    Shift=    0.000
 Gap=     0.205 Goal=   None    Shift=    0.000
 RMSDP=3.58D-05 MaxDP=2.41D-03 DE=-8.68D-04 OVMax= 5.15D-03

 Cycle   7  Pass 1  IDiag  1:
 RMSU=  2.54D-05    CP:  9.85D-01  7.21D-01  6.58D-01  7.76D-01  6.72D-01
                    CP:  7.01D-01
 E= -1467.54875251395     Delta-E=       -0.000092907806 Rises=F Damp=F
 DIIS: error= 1.03D-04 at cycle   7 NSaved=   7.
 NSaved= 7 IEnMin= 7 EnMin= -1467.54875251395     IErMin= 7 ErrMin= 1.03D-04
 ErrMax= 1.03D-04  0.00D+00 EMaxC= 1.00D-01 BMatC= 6.45D-05 BMatP= 4.02D-04
 IDIUse=3 WtCom= 9.99D-01 WtEn= 1.03D-03
 Coeff-Com: -0.639D-04-0.234D-02-0.277D-02-0.312D-03 0.582D-01 0.327D+00
 Coeff-Com:  0.621D+00
 Coeff-En:   0.000D+00 0.000D+00 0.000D+00 0.000D+00 0.000D+00 0.680D-01
 Coeff-En:   0.932D+00
 Coeff:     -0.638D-04-0.233D-02-0.277D-02-0.312D-03 0.581D-01 0.326D+00
 Coeff:      0.621D+00
 Gap=     0.145 Goal=   None    Shift=    0.000
 Gap=     0.206 Goal=   None    Shift=    0.000
 RMSDP=1.50D-05 MaxDP=9.46D-04 DE=-9.29D-05 OVMax= 1.17D-03

 Cycle   8  Pass 1  IDiag  1:
 RMSU=  1.04D-05    CP:  9.85D-01  7.21D-01  6.58D-01  7.76D-01  7.06D-01
                    CP:  7.97D-01  8.03D-01
 E= -1467.54876832344     Delta-E=       -0.000015809489 Rises=F Damp=F
 DIIS: error= 3.20D-05 at cycle   8 NSaved=   8.
 NSaved= 8 IEnMin= 8 EnMin= -1467.54876832344     IErMin= 8 ErrMin= 3.20D-05
 ErrMax= 3.20D-05  0.00D+00 EMaxC= 1.00D-01 BMatC= 4.38D-06 BMatP= 6.45D-05
 IDIUse=1 WtCom= 1.00D+00 WtEn= 0.00D+00
 Coeff-Com:  0.451D-03-0.116D-02-0.518D-02-0.147D-01-0.174D-01 0.593D-01
 Coeff-Com:  0.208D+00 0.771D+00
 Coeff:      0.451D-03-0.116D-02-0.518D-02-0.147D-01-0.174D-01 0.593D-01
 Coeff:      0.208D+00 0.771D+00
 Gap=     0.145 Goal=   None    Shift=    0.000
 Gap=     0.205 Goal=   None    Shift=    0.000
 RMSDP=4.90D-06 MaxDP=5.90D-04 DE=-1.58D-05 OVMax= 1.17D-03

 Cycle   9  Pass 1  IDiag  1:
 RMSU=  3.97D-06    CP:  9.85D-01  7.21D-01  6.57D-01  7.78D-01  7.05D-01
                    CP:  8.26D-01  8.45D-01  9.12D-01
 E= -1467.54876974608     Delta-E=       -0.000001422634 Rises=F Damp=F
 DIIS: error= 2.03D-05 at cycle   9 NSaved=   9.
 NSaved= 9 IEnMin= 9 EnMin= -1467.54876974608     IErMin= 9 ErrMin= 2.03D-05
 ErrMax= 2.03D-05  0.00D+00 EMaxC= 1.00D-01 BMatC= 2.35D-06 BMatP= 4.38D-06
 IDIUse=1 WtCom= 1.00D+00 WtEn= 0.00D+00
 Coeff-Com:  0.332D-03-0.350D-03-0.259D-02-0.905D-02-0.249D-01-0.297D-01
 Coeff-Com: -0.174D-01 0.463D+00 0.621D+00
 Coeff:      0.332D-03-0.350D-03-0.259D-02-0.905D-02-0.249D-01-0.297D-01
 Coeff:     -0.174D-01 0.463D+00 0.621D+00
 Gap=     0.145 Goal=   None    Shift=    0.000
 Gap=     0.205 Goal=   None    Shift=    0.000
 RMSDP=3.27D-06 MaxDP=2.52D-04 DE=-1.42D-06 OVMax= 2.71D-04

 Cycle  10  Pass 1  IDiag  1:
 RMSU=  2.17D-06    CP:  9.85D-01  7.21D-01  6.57D-01  7.77D-01  7.10D-01
                    CP:  8.43D-01  8.84D-01  1.05D+00  8.99D-01
 E= -1467.54877028426     Delta-E=       -0.000000538183 Rises=F Damp=F
 DIIS: error= 9.01D-06 at cycle  10 NSaved=  10.
 NSaved=10 IEnMin=10 EnMin= -1467.54877028426     IErMin=10 ErrMin= 9.01D-06
 ErrMax= 9.01D-06  0.00D+00 EMaxC= 1.00D-01 BMatC= 4.76D-07 BMatP= 2.35D-06
 IDIUse=1 WtCom= 1.00D+00 WtEn= 0.00D+00
 Coeff-Com:  0.994D-04 0.767D-04-0.829D-04-0.141D-02-0.109D-01-0.290D-01
 Coeff-Com: -0.660D-01 0.102D+00 0.368D+00 0.638D+00
 Coeff:      0.994D-04 0.767D-04-0.829D-04-0.141D-02-0.109D-01-0.290D-01
 Coeff:     -0.660D-01 0.102D+00 0.368D+00 0.638D+00
 Gap=     0.145 Goal=   None    Shift=    0.000
 Gap=     0.205 Goal=   None    Shift=    0.000
 RMSDP=1.37D-06 MaxDP=1.31D-04 DE=-5.38D-07 OVMax= 2.83D-04

 Cycle  11  Pass 1  IDiag  1:
 RMSU=  8.54D-07    CP:  9.85D-01  7.21D-01  6.57D-01  7.77D-01  7.10D-01
                    CP:  8.48D-01  8.88D-01  1.13D+00  1.01D+00  8.31D-01
 E= -1467.54877041971     Delta-E=       -0.000000135453 Rises=F Damp=F
 DIIS: error= 5.09D-06 at cycle  11 NSaved=  11.
 NSaved=11 IEnMin=11 EnMin= -1467.54877041971     IErMin=11 ErrMin= 5.09D-06
 ErrMax= 5.09D-06  0.00D+00 EMaxC= 1.00D-01 BMatC= 1.02D-07 BMatP= 4.76D-07
 IDIUse=1 WtCom= 1.00D+00 WtEn= 0.00D+00
 Coeff-Com: -0.358D-06 0.766D-04 0.426D-03 0.873D-03-0.182D-02-0.972D-02
 Coeff-Com: -0.347D-01-0.253D-01 0.680D-01 0.362D+00 0.640D+00
 Coeff:     -0.358D-06 0.766D-04 0.426D-03 0.873D-03-0.182D-02-0.972D-02
 Coeff:     -0.347D-01-0.253D-01 0.680D-01 0.362D+00 0.640D+00
 Gap=     0.145 Goal=   None    Shift=    0.000
 Gap=     0.205 Goal=   None    Shift=    0.000
 RMSDP=6.08D-07 MaxDP=4.29D-05 DE=-1.35D-07 OVMax= 9.23D-05

 Cycle  12  Pass 1  IDiag  1:
 RMSU=  4.15D-07    CP:  9.85D-01  7.21D-01  6.57D-01  7.77D-01  7.09D-01
                    CP:  8.50D-01  8.86D-01  1.14D+00  1.07D+00  9.66D-01
                    CP:  8.40D-01
 E= -1467.54877044423     Delta-E=       -0.000000024521 Rises=F Damp=F
 DIIS: error= 2.37D-06 at cycle  12 NSaved=  12.
 NSaved=12 IEnMin=12 EnMin= -1467.54877044423     IErMin=12 ErrMin= 2.37D-06
 ErrMax= 2.37D-06  0.00D+00 EMaxC= 1.00D-01 BMatC= 2.01D-08 BMatP= 1.02D-07
 IDIUse=1 WtCom= 1.00D+00 WtEn= 0.00D+00
 Coeff-Com: -0.127D-04 0.254D-04 0.272D-03 0.741D-03 0.621D-03-0.889D-03
 Coeff-Com: -0.107D-01-0.327D-01-0.291D-01 0.115D+00 0.379D+00 0.578D+00
 Coeff:     -0.127D-04 0.254D-04 0.272D-03 0.741D-03 0.621D-03-0.889D-03
 Coeff:     -0.107D-01-0.327D-01-0.291D-01 0.115D+00 0.379D+00 0.578D+00
 Gap=     0.145 Goal=   None    Shift=    0.000
 Gap=     0.205 Goal=   None    Shift=    0.000
 RMSDP=2.84D-07 MaxDP=1.81D-05 DE=-2.45D-08 OVMax= 2.24D-05

 Cycle  13  Pass 1  IDiag  1:
 RMSU=  1.93D-07    CP:  9.85D-01  7.21D-01  6.57D-01  7.77D-01  7.09D-01
                    CP:  8.51D-01  8.87D-01  1.14D+00  1.09D+00  1.03D+00
                    CP:  9.39D-01  8.28D-01
 E= -1467.54877044870     Delta-E=       -0.000000004470 Rises=F Damp=F
 DIIS: error= 1.23D-06 at cycle  13 NSaved=  13.
 NSaved=13 IEnMin=13 EnMin= -1467.54877044870     IErMin=13 ErrMin= 1.23D-06
 ErrMax= 1.23D-06  0.00D+00 EMaxC= 1.00D-01 BMatC= 4.34D-09 BMatP= 2.01D-08
 IDIUse=1 WtCom= 1.00D+00 WtEn= 0.00D+00
 Coeff-Com: -0.454D-05-0.755D-05 0.547D-04 0.200D-03 0.830D-03 0.256D-02
 Coeff-Com:  0.336D-02-0.957D-02-0.368D-01-0.245D-01 0.575D-01 0.352D+00
 Coeff-Com:  0.655D+00
 Coeff:     -0.454D-05-0.755D-05 0.547D-04 0.200D-03 0.830D-03 0.256D-02
 Coeff:      0.336D-02-0.957D-02-0.368D-01-0.245D-01 0.575D-01 0.352D+00
 Coeff:      0.655D+00
 Gap=     0.145 Goal=   None    Shift=    0.000
 Gap=     0.205 Goal=   None    Shift=    0.000
 RMSDP=1.20D-07 MaxDP=1.14D-05 DE=-4.47D-09 OVMax= 1.87D-05

 Cycle  14  Pass 1  IDiag  1:
 RMSU=  9.89D-08    CP:  9.85D-01  7.21D-01  6.57D-01  7.77D-01  7.09D-01
                    CP:  8.51D-01  8.86D-01  1.15D+00  1.09D+00  1.04D+00
                    CP:  9.67D-01  8.60D-01  8.05D-01
 E= -1467.54877044978     Delta-E=       -0.000000001080 Rises=F Damp=F
 DIIS: error= 5.50D-07 at cycle  14 NSaved=  14.
 NSaved=14 IEnMin=14 EnMin= -1467.54877044978     IErMin=14 ErrMin= 5.50D-07
 ErrMax= 5.50D-07  0.00D+00 EMaxC= 1.00D-01 BMatC= 8.86D-10 BMatP= 4.34D-09
 IDIUse=1 WtCom= 1.00D+00 WtEn= 0.00D+00
 Coeff-Com:  0.245D-06-0.110D-04-0.261D-04-0.409D-04 0.323D-03 0.158D-02
 Coeff-Com:  0.389D-02 0.162D-02-0.149D-01-0.381D-01-0.554D-01 0.502D-01
 Coeff-Com:  0.374D+00 0.677D+00
 Coeff:      0.245D-06-0.110D-04-0.261D-04-0.409D-04 0.323D-03 0.158D-02
 Coeff:      0.389D-02 0.162D-02-0.149D-01-0.381D-01-0.554D-01 0.502D-01
 Coeff:      0.374D+00 0.677D+00
 Gap=     0.145 Goal=   None    Shift=    0.000
 Gap=     0.205 Goal=   None    Shift=    0.000
 RMSDP=6.97D-08 MaxDP=4.55D-06 DE=-1.08D-09 OVMax= 5.54D-06

 Cycle  15  Pass 1  IDiag  1:
 RMSU=  3.31D-08    CP:  9.85D-01  7.21D-01  6.57D-01  7.77D-01  7.09D-01
                    CP:  8.51D-01  8.86D-01  1.15D+00  1.09D+00  1.05D+00
                    CP:  9.89D-01  9.52D-01  9.17D-01  8.04D-01
 E= -1467.54877045009     Delta-E=       -0.000000000310 Rises=F Damp=F
 DIIS: error= 1.29D-07 at cycle  15 NSaved=  15.
 NSaved=15 IEnMin=15 EnMin= -1467.54877045009     IErMin=15 ErrMin= 1.29D-07
 ErrMax= 1.29D-07  0.00D+00 EMaxC= 1.00D-01 BMatC= 5.58D-11 BMatP= 8.86D-10
 IDIUse=1 WtCom= 1.00D+00 WtEn= 0.00D+00
 Coeff-Com:  0.782D-06-0.230D-05-0.190D-04-0.473D-04-0.111D-04 0.212D-03
 Coeff-Com:  0.856D-03 0.219D-02 0.499D-04-0.889D-02-0.285D-01-0.371D-01
 Coeff-Com:  0.457D-01 0.219D+00 0.807D+00
 Coeff:      0.782D-06-0.230D-05-0.190D-04-0.473D-04-0.111D-04 0.212D-03
 Coeff:      0.856D-03 0.219D-02 0.499D-04-0.889D-02-0.285D-01-0.371D-01
 Coeff:      0.457D-01 0.219D+00 0.807D+00
 Gap=     0.145 Goal=   None    Shift=    0.000
 Gap=     0.205 Goal=   None    Shift=    0.000
 RMSDP=1.99D-08 MaxDP=1.18D-06 DE=-3.10D-10 OVMax= 2.10D-06

 Cycle  16  Pass 1  IDiag  1:
 RMSU=  1.39D-08    CP:  9.85D-01  7.21D-01  6.57D-01  7.77D-01  7.09D-01
                    CP:  8.51D-01  8.86D-01  1.15D+00  1.09D+00  1.05D+00
                    CP:  9.91D-01  9.55D-01  9.70D-01  8.80D-01  9.42D-01
 E= -1467.54877044999     Delta-E=        0.000000000102 Rises=F Damp=F
 DIIS: error= 4.71D-08 at cycle  16 NSaved=  16.
 NSaved=16 IEnMin=15 EnMin= -1467.54877045009     IErMin=16 ErrMin= 4.71D-08
 ErrMax= 4.71D-08  0.00D+00 EMaxC= 1.00D-01 BMatC= 1.11D-11 BMatP= 5.58D-11
 IDIUse=1 WtCom= 1.00D+00 WtEn= 0.00D+00
 Coeff-Com:  0.138D-06 0.956D-06-0.362D-05-0.110D-04-0.530D-04-0.150D-03
 Coeff-Com: -0.255D-03 0.619D-03 0.214D-02 0.258D-02-0.320D-02-0.219D-01
 Coeff-Com: -0.362D-01-0.219D-01 0.318D+00 0.760D+00
 Coeff:      0.138D-06 0.956D-06-0.362D-05-0.110D-04-0.530D-04-0.150D-03
 Coeff:     -0.255D-03 0.619D-03 0.214D-02 0.258D-02-0.320D-02-0.219D-01
 Coeff:     -0.362D-01-0.219D-01 0.318D+00 0.760D+00
 Gap=     0.145 Goal=   None    Shift=    0.000
 Gap=     0.205 Goal=   None    Shift=    0.000
 RMSDP=8.63D-09 MaxDP=4.92D-07 DE= 1.02D-10 OVMax= 1.29D-06

 SCF Done:  E(UPBE1PBE) =  -1467.54877045     A.U. after   16 cycles
            NFock= 16  Conv=0.86D-08     -V/T= 2.0052
 <Sx>= 0.0000 <Sy>= 0.0000 <Sz>= 0.5000 <S**2>= 0.7550 S= 0.5025
 <L.S>=  0.00000000000    
 KE= 1.459906640212D+03 PE=-6.497608564833D+03 EE= 2.049051021927D+03
 Annihilation of the first spin contaminant:
 S**2 before annihilation     0.7550,   after     0.7500
 Leave Link  502 at Wed Jun 12 15:26:10 2019, MaxMem=  8053063680 cpu:               0.0 elap:             177.4
 (Enter /data2/g16/g16/l601.exe)
 Copying SCF densities to generalized density rwf, IOpCl= 1 IROHF=0.

 **********************************************************************

            Population analysis using the SCF Density.

 **********************************************************************

 Orbital symmetries:
 Alpha Orbitals:
       Occupied  (A) (A) (A) (A) (A) (A) (A) (A) (A) (A) (A) (A)
                 (A) (A) (A) (A) (A) (A) (A) (A) (A) (A) (A) (A)
                 (A) (A) (A) (A) (A) (A) (A) (A) (A) (A) (A) (A)
                 (A) (A) (A) (A) (A) (A) (A) (A) (A) (A) (A) (A)
                 (A) (A) (A) (A) (A) (A) (A) (A) (A) (A) (A) (A)
                 (A) (A) (A) (A) (A) (A) (A) (A) (A) (A) (A)
       Virtual   (A) (A) (A) (A) (A) (A) (A) (A) (A) (A) (A) (A)
                 (A) (A) (A) (A) (A) (A) (A) (A) (A) (A) (A) (A)
                 (A) (A) (A) (A) (A) (A) (A) (A) (A) (A) (A) (A)
                 (A) (A) (A) (A) (A) (A) (A) (A) (A) (A) (A) (A)
                 (A) (A) (A) (A) (A) (A) (A) (A) (A) (A) (A) (A)
                 (A) (A) (A) (A) (A) (A) (A) (A) (A) (A) (A) (A)
                 (A) (A) (A) (A) (A) (A) (A) (A) (A) (A) (A) (A)
                 (A) (A) (A) (A) (A) (A) (A) (A) (A) (A) (A) (A)
                 (A) (A) (A) (A) (A) (A) (A) (A) (A) (A) (A) (A)
                 (A) (A) (A) (A) (A) (A) (A) (A) (A) (A) (A) (A)
                 (A) (A) (A) (A) (A) (A) (A) (A) (A) (A) (A) (A)
                 (A) (A) (A) (A) (A) (A) (A) (A) (A) (A) (A) (A)
                 (A) (A) (A) (A) (A) (A) (A) (A) (A) (A) (A) (A)
                 (A) (A) (A) (A) (A) (A) (A) (A) (A) (A) (A) (A)
                 (A) (A) (A) (A) (A) (A) (A) (A) (A) (A) (A) (A)
                 (A) (A) (A) (A) (A) (A) (A) (A) (A) (A) (A) (A)
                 (A) (A) (A) (A) (A) (A) (A) (A) (A) (A) (A) (A)
                 (A) (A) (A) (A) (A) (A) (A) (A) (A) (A) (A) (A)
                 (A) (A) (A) (A) (A) (A) (A) (A) (A) (A) (A) (A)
                 (A) (A) (A) (A) (A) (A) (A) (A) (A) (A) (A) (A)
                 (A) (A) (A) (A) (A) (A) (A) (A) (A) (A) (A) (A)
                 (A) (A) (A) (A) (A) (A) (A) (A) (A) (A) (A) (A)
                 (A) (A) (A) (A) (A) (A) (A) (A) (A) (A) (A) (A)
                 (A) (A) (A) (A) (A) (A) (A) (A) (A) (A) (A) (A)
                 (A) (A) (A) (A) (A) (A) (A) (A) (A) (A) (A) (A)
                 (A) (A) (A) (A) (A) (A) (A) (A) (A) (A) (A) (A)
                 (A) (A) (A) (A) (A) (A) (A) (A) (A) (A) (A) (A)
                 (A) (A) (A) (A) (A) (A) (A) (A) (A) (A) (A) (A)
                 (A) (A) (A) (A) (A) (A) (A) (A) (A) (A) (A) (A)
                 (A) (A) (A) (A) (A) (A) (A) (A) (A) (A) (A) (A)
                 (A) (A) (A) (A) (A) (A) (A)
 Beta  Orbitals:
       Occupied  (A) (A) (A) (A) (A) (A) (A) (A) (A) (A) (A) (A)
                 (A) (A) (A) (A) (A) (A) (A) (A) (A) (A) (A) (A)
                 (A) (A) (A) (A) (A) (A) (A) (A) (A) (A) (A) (A)
                 (A) (A) (A) (A) (A) (A) (A) (A) (A) (A) (A) (A)
                 (A) (A) (A) (A) (A) (A) (A) (A) (A) (A) (A) (A)
                 (A) (A) (A) (A) (A) (A) (A) (A) (A) (A)
       Virtual   (A) (A) (A) (A) (A) (A) (A) (A) (A) (A) (A) (A)
                 (A) (A) (A) (A) (A) (A) (A) (A) (A) (A) (A) (A)
                 (A) (A) (A) (A) (A) (A) (A) (A) (A) (A) (A) (A)
                 (A) (A) (A) (A) (A) (A) (A) (A) (A) (A) (A) (A)
                 (A) (A) (A) (A) (A) (A) (A) (A) (A) (A) (A) (A)
                 (A) (A) (A) (A) (A) (A) (A) (A) (A) (A) (A) (A)
                 (A) (A) (A) (A) (A) (A) (A) (A) (A) (A) (A) (A)
                 (A) (A) (A) (A) (A) (A) (A) (A) (A) (A) (A) (A)
                 (A) (A) (A) (A) (A) (A) (A) (A) (A) (A) (A) (A)
                 (A) (A) (A) (A) (A) (A) (A) (A) (A) (A) (A) (A)
                 (A) (A) (A) (A) (A) (A) (A) (A) (A) (A) (A) (A)
                 (A) (A) (A) (A) (A) (A) (A) (A) (A) (A) (A) (A)
                 (A) (A) (A) (A) (A) (A) (A) (A) (A) (A) (A) (A)
                 (A) (A) (A) (A) (A) (A) (A) (A) (A) (A) (A) (A)
                 (A) (A) (A) (A) (A) (A) (A) (A) (A) (A) (A) (A)
                 (A) (A) (A) (A) (A) (A) (A) (A) (A) (A) (A) (A)
                 (A) (A) (A) (A) (A) (A) (A) (A) (A) (A) (A) (A)
                 (A) (A) (A) (A) (A) (A) (A) (A) (A) (A) (A) (A)
                 (A) (A) (A) (A) (A) (A) (A) (A) (A) (A) (A) (A)
                 (A) (A) (A) (A) (A) (A) (A) (A) (A) (A) (A) (A)
                 (A) (A) (A) (A) (A) (A) (A) (A) (A) (A) (A) (A)
                 (A) (A) (A) (A) (A) (A) (A) (A) (A) (A) (A) (A)
                 (A) (A) (A) (A) (A) (A) (A) (A) (A) (A) (A) (A)
                 (A) (A) (A) (A) (A) (A) (A) (A) (A) (A) (A) (A)
                 (A) (A) (A) (A) (A) (A) (A) (A) (A) (A) (A) (A)
                 (A) (A) (A) (A) (A) (A) (A) (A) (A) (A) (A) (A)
                 (A) (A) (A) (A) (A) (A) (A) (A) (A) (A) (A) (A)
                 (A) (A) (A) (A) (A) (A) (A) (A) (A) (A) (A) (A)
                 (A) (A) (A) (A) (A) (A) (A) (A) (A) (A) (A) (A)
                 (A) (A) (A) (A) (A) (A) (A) (A) (A) (A) (A) (A)
                 (A) (A) (A) (A) (A) (A) (A) (A)
 The electronic state is 2-A.
 Alpha  occ. eigenvalues --  -89.28814 -89.08204 -19.24734 -19.24246 -19.22567
 Alpha  occ. eigenvalues --  -14.48492 -10.29801 -10.29710 -10.29121 -10.28706
 Alpha  occ. eigenvalues --  -10.26152 -10.24882 -10.23217 -10.22697 -10.22683
 Alpha  occ. eigenvalues --  -10.22401  -8.22131  -8.04447  -6.15852  -6.15810
 Alpha  occ. eigenvalues --   -6.15695  -5.98289  -5.97910  -5.97188  -1.14680
 Alpha  occ. eigenvalues --   -1.13863  -1.04446  -0.93330  -0.85926  -0.84054
 Alpha  occ. eigenvalues --   -0.82267  -0.77255  -0.74904  -0.72077  -0.71234
 Alpha  occ. eigenvalues --   -0.70602  -0.64493  -0.62473  -0.59033  -0.56407
 Alpha  occ. eigenvalues --   -0.53133  -0.51823  -0.51298  -0.50759  -0.50316
 Alpha  occ. eigenvalues --   -0.48508  -0.47433  -0.46371  -0.46180  -0.45193
 Alpha  occ. eigenvalues --   -0.44662  -0.44015  -0.42755  -0.42449  -0.41663
 Alpha  occ. eigenvalues --   -0.40531  -0.40046  -0.39199  -0.38934  -0.36498
 Alpha  occ. eigenvalues --   -0.36392  -0.36146  -0.35743  -0.35652  -0.34584
 Alpha  occ. eigenvalues --   -0.33582  -0.31772  -0.28346  -0.27181  -0.26908
 Alpha  occ. eigenvalues --   -0.19913
 Alpha virt. eigenvalues --   -0.05434  -0.02481   0.00447   0.01058   0.02621
 Alpha virt. eigenvalues --    0.03426   0.03732   0.04553   0.04789   0.04998
 Alpha virt. eigenvalues --    0.05455   0.05825   0.06169   0.06283   0.06854
 Alpha virt. eigenvalues --    0.07841   0.08242   0.08338   0.09019   0.09283
 Alpha virt. eigenvalues --    0.09379   0.09715   0.10299   0.10817   0.10975
 Alpha virt. eigenvalues --    0.11370   0.11868   0.12607   0.13015   0.13688
 Alpha virt. eigenvalues --    0.14034   0.14358   0.14781   0.15111   0.15468
 Alpha virt. eigenvalues --    0.16005   0.16576   0.16657   0.17035   0.17684
 Alpha virt. eigenvalues --    0.18478   0.18737   0.19265   0.19513   0.19662
 Alpha virt. eigenvalues --    0.19991   0.20941   0.21300   0.21922   0.22484
 Alpha virt. eigenvalues --    0.23160   0.23403   0.24159   0.24452   0.25304
 Alpha virt. eigenvalues --    0.26030   0.26306   0.26610   0.27165   0.27687
 Alpha virt. eigenvalues --    0.28113   0.28544   0.29011   0.29306   0.29756
 Alpha virt. eigenvalues --    0.30378   0.30570   0.31435   0.31569   0.31958
 Alpha virt. eigenvalues --    0.32619   0.32907   0.33662   0.34380   0.34995
 Alpha virt. eigenvalues --    0.35637   0.36806   0.37805   0.37994   0.40558
 Alpha virt. eigenvalues --    0.41688   0.42124   0.42409   0.43135   0.44473
 Alpha virt. eigenvalues --    0.46233   0.47201   0.47580   0.48084   0.50159
 Alpha virt. eigenvalues --    0.50638   0.51160   0.51895   0.52075   0.52455
 Alpha virt. eigenvalues --    0.52925   0.53758   0.54363   0.55464   0.56169
 Alpha virt. eigenvalues --    0.56926   0.57590   0.58234   0.59847   0.60331
 Alpha virt. eigenvalues --    0.60679   0.61826   0.62642   0.63190   0.64005
 Alpha virt. eigenvalues --    0.64419   0.64989   0.65511   0.65669   0.66653
 Alpha virt. eigenvalues --    0.68040   0.68204   0.68587   0.70020   0.70928
 Alpha virt. eigenvalues --    0.72114   0.72708   0.73081   0.73407   0.74177
 Alpha virt. eigenvalues --    0.74888   0.75819   0.76484   0.77433   0.78578
 Alpha virt. eigenvalues --    0.79018   0.79822   0.80732   0.81908   0.82176
 Alpha virt. eigenvalues --    0.82771   0.83207   0.83904   0.84796   0.85602
 Alpha virt. eigenvalues --    0.85930   0.87002   0.88032   0.88585   0.88752
 Alpha virt. eigenvalues --    0.89129   0.89782   0.90384   0.91093   0.91672
 Alpha virt. eigenvalues --    0.91916   0.92957   0.94383   0.95032   0.95255
 Alpha virt. eigenvalues --    0.96009   0.97678   0.97827   0.98155   0.99282
 Alpha virt. eigenvalues --    1.00033   1.01696   1.02184   1.03440   1.04292
 Alpha virt. eigenvalues --    1.04878   1.07718   1.08620   1.09171   1.11650
 Alpha virt. eigenvalues --    1.12663   1.14460   1.15108   1.16115   1.17278
 Alpha virt. eigenvalues --    1.18495   1.20384   1.22298   1.22642   1.23689
 Alpha virt. eigenvalues --    1.25715   1.28172   1.29858   1.30806   1.31925
 Alpha virt. eigenvalues --    1.36174   1.37908   1.39526   1.40069   1.41353
 Alpha virt. eigenvalues --    1.44330   1.45238   1.45913   1.47982   1.49086
 Alpha virt. eigenvalues --    1.49598   1.49936   1.50922   1.52853   1.55833
 Alpha virt. eigenvalues --    1.57352   1.59315   1.62678   1.63085   1.63376
 Alpha virt. eigenvalues --    1.65893   1.66120   1.66484   1.68061   1.68450
 Alpha virt. eigenvalues --    1.68932   1.71325   1.72306   1.73169   1.74642
 Alpha virt. eigenvalues --    1.75379   1.76554   1.77778   1.78998   1.79343
 Alpha virt. eigenvalues --    1.79704   1.80287   1.80839   1.82017   1.82639
 Alpha virt. eigenvalues --    1.84084   1.84981   1.85188   1.86161   1.86718
 Alpha virt. eigenvalues --    1.87990   1.89380   1.91649   1.92488   1.93940
 Alpha virt. eigenvalues --    1.95204   1.95909   1.97955   1.98272   1.99179
 Alpha virt. eigenvalues --    1.99671   2.01910   2.03168   2.04145   2.05638
 Alpha virt. eigenvalues --    2.06652   2.07323   2.10206   2.11951   2.13523
 Alpha virt. eigenvalues --    2.14840   2.16215   2.17199   2.25464   2.25789
 Alpha virt. eigenvalues --    2.27133   2.28157   2.31206   2.33141   2.34375
 Alpha virt. eigenvalues --    2.36511   2.38749   2.39422   2.40206   2.41014
 Alpha virt. eigenvalues --    2.43354   2.44714   2.47303   2.48826   2.49635
 Alpha virt. eigenvalues --    2.53825   2.54702   2.54975   2.57902   2.58761
 Alpha virt. eigenvalues --    2.60679   2.63824   2.65287   2.66130   2.67660
 Alpha virt. eigenvalues --    2.70718   2.75595   2.76126   2.77245   2.80314
 Alpha virt. eigenvalues --    2.82523   2.82671   2.83078   2.83217   2.84162
 Alpha virt. eigenvalues --    2.84238   2.85270   2.86388   2.87004   2.87654
 Alpha virt. eigenvalues --    2.88169   2.89713   2.91052   2.93074   2.93763
 Alpha virt. eigenvalues --    2.94428   2.95556   2.96806   2.98011   2.98445
 Alpha virt. eigenvalues --    2.99361   3.02912   3.03865   3.03946   3.06566
 Alpha virt. eigenvalues --    3.08185   3.15666   3.18416   3.19541   3.20907
 Alpha virt. eigenvalues --    3.26185   3.28196   3.29641   3.31154   3.31733
 Alpha virt. eigenvalues --    3.34596   3.35683   3.37177   3.38412   3.41205
 Alpha virt. eigenvalues --    3.42257   3.43550   3.44951   3.47987   3.50294
 Alpha virt. eigenvalues --    3.53625   3.56748   3.59974   3.63852   3.64867
 Alpha virt. eigenvalues --    3.76320   3.95551   4.47191   4.57299   4.62148
 Alpha virt. eigenvalues --    4.64214   4.72361   4.73690   4.74598   4.86639
 Alpha virt. eigenvalues --    4.91365   5.03195   5.44851   5.81716   5.84410
 Alpha virt. eigenvalues --    6.08605  22.21379  22.63280  58.49161  58.49234
 Alpha virt. eigenvalues --   58.50376  58.50645  58.50891  58.55691  58.56191
 Alpha virt. eigenvalues --   58.56244  58.56549  58.56798  95.61998 106.32219
 Alpha virt. eigenvalues --  106.33240 106.39291
  Beta  occ. eigenvalues --  -89.28814 -89.08204 -19.24734 -19.24246 -19.21143
  Beta  occ. eigenvalues --  -14.47294 -10.29803 -10.29710 -10.29190 -10.28774
  Beta  occ. eigenvalues --  -10.26151 -10.24880 -10.23167 -10.22649 -10.22631
  Beta  occ. eigenvalues --  -10.22347  -8.22131  -8.04447  -6.15852  -6.15810
  Beta  occ. eigenvalues --   -6.15695  -5.98289  -5.97909  -5.97188  -1.14680
  Beta  occ. eigenvalues --   -1.11233  -1.04446  -0.92392  -0.85738  -0.83952
  Beta  occ. eigenvalues --   -0.82134  -0.77065  -0.73835  -0.71830  -0.71105
  Beta  occ. eigenvalues --   -0.70131  -0.64440  -0.62344  -0.58658  -0.55895
  Beta  occ. eigenvalues --   -0.53045  -0.51815  -0.51020  -0.50417  -0.48379
  Beta  occ. eigenvalues --   -0.47535  -0.47189  -0.46360  -0.46114  -0.44977
  Beta  occ. eigenvalues --   -0.44316  -0.43871  -0.42514  -0.41628  -0.41177
  Beta  occ. eigenvalues --   -0.40219  -0.40011  -0.38853  -0.37680  -0.36342
  Beta  occ. eigenvalues --   -0.36102  -0.35705  -0.35676  -0.34556  -0.33581
  Beta  occ. eigenvalues --   -0.32858  -0.31769  -0.28260  -0.26738  -0.25984
  Beta virt. eigenvalues --   -0.05436  -0.03579  -0.02433   0.00458   0.01063
  Beta virt. eigenvalues --    0.02643   0.03449   0.03772   0.04590   0.04880
  Beta virt. eigenvalues --    0.05032   0.05482   0.05870   0.06198   0.06312
  Beta virt. eigenvalues --    0.06926   0.07860   0.08285   0.08443   0.09047
  Beta virt. eigenvalues --    0.09385   0.09422   0.09789   0.10347   0.10876
  Beta virt. eigenvalues --    0.10991   0.11415   0.11962   0.12718   0.13107
  Beta virt. eigenvalues --    0.13744   0.14086   0.14406   0.14896   0.15191
  Beta virt. eigenvalues --    0.15740   0.16091   0.16625   0.16986   0.17213
  Beta virt. eigenvalues --    0.17805   0.18518   0.18878   0.19347   0.19741
  Beta virt. eigenvalues --    0.19819   0.20163   0.21048   0.21427   0.22015
  Beta virt. eigenvalues --    0.22597   0.23309   0.23454   0.24284   0.24811
  Beta virt. eigenvalues --    0.25485   0.26177   0.26385   0.26700   0.27221
  Beta virt. eigenvalues --    0.27743   0.28199   0.28710   0.29142   0.29401
  Beta virt. eigenvalues --    0.30188   0.30671   0.30708   0.31568   0.31931
  Beta virt. eigenvalues --    0.32040   0.32863   0.33067   0.33826   0.34447
  Beta virt. eigenvalues --    0.35088   0.35833   0.36837   0.37880   0.38078
  Beta virt. eigenvalues --    0.40588   0.41731   0.42169   0.42850   0.43224
  Beta virt. eigenvalues --    0.44678   0.46286   0.47311   0.47606   0.48139
  Beta virt. eigenvalues --    0.50326   0.50709   0.51362   0.51956   0.52238
  Beta virt. eigenvalues --    0.52548   0.52953   0.53960   0.54411   0.55522
  Beta virt. eigenvalues --    0.56258   0.56995   0.57663   0.58383   0.59982
  Beta virt. eigenvalues --    0.60453   0.60816   0.61869   0.62677   0.63375
  Beta virt. eigenvalues --    0.64077   0.64512   0.65079   0.65627   0.65937
  Beta virt. eigenvalues --    0.66737   0.68116   0.68413   0.68728   0.70222
  Beta virt. eigenvalues --    0.71215   0.72197   0.72802   0.73136   0.73489
  Beta virt. eigenvalues --    0.74380   0.74918   0.75947   0.76549   0.77483
  Beta virt. eigenvalues --    0.78773   0.79082   0.80065   0.80841   0.82118
  Beta virt. eigenvalues --    0.82292   0.82822   0.83275   0.84005   0.84877
  Beta virt. eigenvalues --    0.85646   0.86050   0.87108   0.88058   0.88652
  Beta virt. eigenvalues --    0.88791   0.89169   0.89837   0.90467   0.91154
  Beta virt. eigenvalues --    0.91744   0.92060   0.93199   0.94517   0.95137
  Beta virt. eigenvalues --    0.95313   0.96206   0.97737   0.98129   0.99104
  Beta virt. eigenvalues --    0.99476   1.00278   1.01990   1.02219   1.03539
  Beta virt. eigenvalues --    1.04401   1.05000   1.07771   1.08680   1.09464
  Beta virt. eigenvalues --    1.12000   1.12704   1.14502   1.15169   1.16217
  Beta virt. eigenvalues --    1.17509   1.18786   1.20765   1.22696   1.23253
  Beta virt. eigenvalues --    1.24765   1.26394   1.28442   1.30302   1.31514
  Beta virt. eigenvalues --    1.32153   1.36587   1.38210   1.39584   1.40130
  Beta virt. eigenvalues --    1.41434   1.44356   1.45439   1.46208   1.48261
  Beta virt. eigenvalues --    1.49139   1.49671   1.49973   1.50995   1.52891
  Beta virt. eigenvalues --    1.56012   1.57421   1.59435   1.62693   1.63105
  Beta virt. eigenvalues --    1.63387   1.66145   1.66481   1.66920   1.68231
  Beta virt. eigenvalues --    1.68494   1.69265   1.71421   1.72374   1.73269
  Beta virt. eigenvalues --    1.74713   1.75445   1.76641   1.77855   1.79051
  Beta virt. eigenvalues --    1.79391   1.79777   1.80381   1.80867   1.82083
  Beta virt. eigenvalues --    1.82761   1.84192   1.85021   1.85314   1.86272
  Beta virt. eigenvalues --    1.86844   1.88145   1.89492   1.91984   1.92657
  Beta virt. eigenvalues --    1.93994   1.95213   1.95928   1.98089   1.98446
  Beta virt. eigenvalues --    1.99513   1.99889   2.02280   2.03463   2.04327
  Beta virt. eigenvalues --    2.06202   2.06949   2.07574   2.10558   2.12517
  Beta virt. eigenvalues --    2.13624   2.15071   2.16264   2.17663   2.25774
  Beta virt. eigenvalues --    2.26477   2.28165   2.28420   2.31287   2.33206
  Beta virt. eigenvalues --    2.34524   2.36605   2.38752   2.39425   2.40343
  Beta virt. eigenvalues --    2.41381   2.43616   2.44804   2.47459   2.49379
  Beta virt. eigenvalues --    2.49741   2.53928   2.55142   2.56120   2.58284
  Beta virt. eigenvalues --    2.58851   2.60717   2.63880   2.65402   2.66182
  Beta virt. eigenvalues --    2.68663   2.70902   2.75674   2.76383   2.77564
  Beta virt. eigenvalues --    2.80519   2.82541   2.82708   2.83217   2.84036
  Beta virt. eigenvalues --    2.84173   2.85287   2.85886   2.86945   2.87079
  Beta virt. eigenvalues --    2.88048   2.89299   2.89882   2.91318   2.93113
  Beta virt. eigenvalues --    2.94547   2.95205   2.96035   2.96966   2.98166
  Beta virt. eigenvalues --    2.98508   2.99847   3.03093   3.04285   3.04596
  Beta virt. eigenvalues --    3.06634   3.08300   3.15978   3.19273   3.19757
  Beta virt. eigenvalues --    3.24496   3.26193   3.28198   3.30049   3.31204
  Beta virt. eigenvalues --    3.31821   3.34632   3.35693   3.37224   3.38434
  Beta virt. eigenvalues --    3.41264   3.42329   3.43686   3.45003   3.48088
  Beta virt. eigenvalues --    3.50462   3.53805   3.56775   3.60019   3.63955
  Beta virt. eigenvalues --    3.64898   3.76342   3.97248   4.47262   4.57359
  Beta virt. eigenvalues --    4.62149   4.64333   4.72439   4.73795   4.74702
  Beta virt. eigenvalues --    4.86764   4.91404   5.03194   5.46747   5.81726
  Beta virt. eigenvalues --    5.84411   6.11097  22.21380  22.63280  58.49159
  Beta virt. eigenvalues --   58.49234  58.50359  58.50603  58.50833  58.55736
  Beta virt. eigenvalues --   58.56235  58.56290  58.56597  58.56800  95.62933
  Beta virt. eigenvalues --  106.32221 106.33240 106.40425
          Condensed to atoms (all electrons):
               1          2          3          4          5          6
     1  O    8.684381  -0.036333  -0.085793  -0.001918   0.038090  -0.003705
     2  N   -0.036333   7.385194   0.083575  -0.058901  -0.019719   0.016160
     3  C   -0.085793   0.083575   5.441253   0.243515  -0.107042   0.018388
     4  C   -0.001918  -0.058901   0.243515   5.178684   0.613591  -0.032635
     5  C    0.038090  -0.019719  -0.107042   0.613591   5.410060   0.193090
     6  C   -0.003705   0.016160   0.018388  -0.032635   0.193090   5.226438
     7  S   -0.000803   0.005289   0.000103  -0.002772  -0.131206   0.259106
     8  C   -0.069759   0.056067  -0.138430  -0.062729   0.208655  -0.076236
     9  C   -0.011773  -0.091645   0.006806  -0.002418  -0.068622   0.009664
    10  C   -0.008609  -0.087977   0.018030  -0.010742  -0.075747   0.004593
    11  C   -0.004990  -0.107211   0.309293  -0.045548  -0.007192  -0.002530
    12  C   -0.002639  -0.092974   0.313196  -0.075406  -0.005714  -0.001513
    13  H   -0.000631   0.003141  -0.035372   0.405772  -0.049580  -0.001711
    14  H    0.000057  -0.002176   0.003227   0.023631  -0.083203   0.420277
    15  H    0.000125  -0.002984  -0.000210   0.005160  -0.063421   0.407648
    16  H   -0.001295   0.016943  -0.003621   0.003609  -0.000205  -0.000601
    17  H   -0.000667   0.005886  -0.000412   0.001157  -0.005851   0.002240
    18  H    0.007747  -0.023532   0.001450  -0.000920   0.008462  -0.001018
    19  H    0.008375  -0.027018  -0.001349  -0.001488   0.020092  -0.001420
    20  H   -0.000552   0.005214  -0.000743   0.001458  -0.003651   0.002425
    21  H   -0.000514   0.004905   0.001023   0.000978  -0.001694   0.003304
    22  H   -0.000269   0.002577  -0.055930  -0.002505   0.008634  -0.000728
    23  H   -0.000603   0.006271  -0.047063   0.001962   0.001375  -0.000048
    24  H    0.007067  -0.024975  -0.032810   0.015381  -0.002661   0.000086
    25  H    0.008221  -0.030144  -0.026973   0.015936  -0.001065   0.000022
    26  H   -0.000803   0.010536  -0.048275  -0.002177  -0.000046  -0.000024
    27  H   -0.000580   0.013150  -0.061506  -0.004805   0.004669  -0.000576
    28  S   -0.000062  -0.001560   0.000101  -0.030991  -0.006804  -0.004134
    29  O    0.000089   0.005542  -0.004598   0.029711   0.011565   0.004959
    30  O    0.000123  -0.000635  -0.006669   0.025473   0.020205  -0.024062
    31  C    0.000005   0.000158  -0.000703   0.003026   0.004551  -0.000397
    32  H    0.000000  -0.000008   0.000031  -0.000112  -0.000467   0.000192
    33  H   -0.000000   0.000005   0.000015  -0.000013   0.000113   0.000189
    34  H   -0.000000  -0.000002  -0.000022  -0.000470   0.000032  -0.000408
               7          8          9         10         11         12
     1  O   -0.000803  -0.069759  -0.011773  -0.008609  -0.004990  -0.002639
     2  N    0.005289   0.056067  -0.091645  -0.087977  -0.107211  -0.092974
     3  C    0.000103  -0.138430   0.006806   0.018030   0.309293   0.313196
     4  C   -0.002772  -0.062729  -0.002418  -0.010742  -0.045548  -0.075406
     5  C   -0.131206   0.208655  -0.068622  -0.075747  -0.007192  -0.005714
     6  C    0.259106  -0.076236   0.009664   0.004593  -0.002530  -0.001513
     7  S   15.870993  -0.002726   0.002896  -0.000534  -0.000201   0.000914
     8  C   -0.002726   5.438169   0.326235   0.323932   0.015954   0.021070
     9  C    0.002896   0.326235   5.012481  -0.085725  -0.005398   0.005081
    10  C   -0.000534   0.323932  -0.085725   5.034651   0.005373  -0.006287
    11  C   -0.000201   0.015954  -0.005398   0.005373   5.033085  -0.081781
    12  C    0.000914   0.021070   0.005081  -0.006287  -0.081781   5.024291
    13  H    0.000005   0.012688  -0.000897  -0.001555  -0.000945   0.003007
    14  H   -0.041914   0.002907   0.000010  -0.001843  -0.000175  -0.000039
    15  H   -0.041892   0.008049  -0.001029   0.005796   0.000307  -0.000065
    16  H    0.000730  -0.064854   0.412624   0.009189   0.000162  -0.001362
    17  H    0.000992  -0.033951   0.399202  -0.004181   0.000160  -0.000164
    18  H    0.000163  -0.034392   0.411917  -0.004112  -0.000018  -0.000179
    19  H    0.000074  -0.040701  -0.002550   0.416211  -0.000193   0.000059
    20  H   -0.000323  -0.038600  -0.003796   0.401708  -0.000069   0.000144
    21  H   -0.001003  -0.056094   0.008402   0.409612  -0.001005  -0.000052
    22  H    0.000004  -0.002219   0.000096  -0.001216   0.411515   0.008518
    23  H    0.000004  -0.001104   0.000142  -0.000069   0.406340  -0.002633
    24  H   -0.000014   0.000872  -0.000081  -0.000173   0.412134  -0.003885
    25  H   -0.000042  -0.002564  -0.000059   0.000033  -0.004335   0.409622
    26  H   -0.000004  -0.000973  -0.000151   0.000195  -0.002411   0.406325
    27  H   -0.000024  -0.000161  -0.001388   0.000089   0.009075   0.412261
    28  S    0.310591   0.003722  -0.003586  -0.000190  -0.000790   0.002288
    29  O   -0.074802  -0.008625  -0.000714   0.000125   0.000272  -0.006765
    30  O   -0.082897  -0.003903   0.000734  -0.000006   0.001048   0.000578
    31  C   -0.052563  -0.001186   0.000239   0.000049   0.000054  -0.000208
    32  H   -0.000741   0.000144  -0.000071  -0.000002  -0.000000  -0.000007
    33  H    0.001528  -0.000039  -0.000002   0.000001  -0.000000  -0.000006
    34  H    0.002505   0.000121   0.000002  -0.000001  -0.000000   0.000009
              13         14         15         16         17         18
     1  O   -0.000631   0.000057   0.000125  -0.001295  -0.000667   0.007747
     2  N    0.003141  -0.002176  -0.002984   0.016943   0.005886  -0.023532
     3  C   -0.035372   0.003227  -0.000210  -0.003621  -0.000412   0.001450
     4  C    0.405772   0.023631   0.005160   0.003609   0.001157  -0.000920
     5  C   -0.049580  -0.083203  -0.063421  -0.000205  -0.005851   0.008462
     6  C   -0.001711   0.420277   0.407648  -0.000601   0.002240  -0.001018
     7  S    0.000005  -0.041914  -0.041892   0.000730   0.000992   0.000163
     8  C    0.012688   0.002907   0.008049  -0.064854  -0.033951  -0.034392
     9  C   -0.000897   0.000010  -0.001029   0.412624   0.399202   0.411917
    10  C   -0.001555  -0.001843   0.005796   0.009189  -0.004181  -0.004112
    11  C   -0.000945  -0.000175   0.000307   0.000162   0.000160  -0.000018
    12  C    0.003007  -0.000039  -0.000065  -0.001362  -0.000164  -0.000179
    13  H    0.508786   0.002229  -0.000019  -0.000034  -0.000001   0.000004
    14  H    0.002229   0.489984  -0.014238  -0.000038  -0.000017   0.000001
    15  H   -0.000019  -0.014238   0.530630   0.000092  -0.000047   0.000013
    16  H   -0.000034  -0.000038   0.000092   0.537164  -0.019645  -0.015314
    17  H   -0.000001  -0.000017  -0.000047  -0.019645   0.566130  -0.020852
    18  H    0.000004   0.000001   0.000013  -0.015314  -0.020852   0.526495
    19  H    0.000005   0.000004  -0.000033  -0.000011  -0.000259   0.001913
    20  H    0.000002   0.000015  -0.000103   0.000088   0.001242  -0.000158
    21  H   -0.000018  -0.000002  -0.000212  -0.000139   0.000081   0.000035
    22  H    0.000131   0.000004   0.000001  -0.000001   0.000000  -0.000000
    23  H    0.000575   0.000001   0.000000  -0.000000  -0.000000   0.000000
    24  H    0.000008   0.000000  -0.000000  -0.000000   0.000000  -0.000002
    25  H   -0.000035  -0.000000   0.000000   0.000003   0.000000  -0.000008
    26  H    0.000135  -0.000001   0.000000   0.000008  -0.000000  -0.000000
    27  H   -0.000158  -0.000002   0.000000   0.000271   0.000009  -0.000004
    28  S    0.003231  -0.013634   0.003004  -0.000919  -0.000941   0.000362
    29  O   -0.000344   0.000981  -0.000798  -0.000033   0.000171   0.000000
    30  O   -0.000906   0.011403  -0.001296   0.000074   0.000023  -0.000010
    31  C   -0.000106   0.000431  -0.000065   0.000034   0.000048  -0.000002
    32  H    0.000000   0.000005  -0.000000  -0.000000  -0.000000   0.000000
    33  H    0.000000  -0.000011   0.000000   0.000000   0.000000  -0.000000
    34  H    0.000001   0.000026  -0.000000  -0.000000  -0.000000   0.000000
              19         20         21         22         23         24
     1  O    0.008375  -0.000552  -0.000514  -0.000269  -0.000603   0.007067
     2  N   -0.027018   0.005214   0.004905   0.002577   0.006271  -0.024975
     3  C   -0.001349  -0.000743   0.001023  -0.055930  -0.047063  -0.032810
     4  C   -0.001488   0.001458   0.000978  -0.002505   0.001962   0.015381
[...]
     7  S   -0.021438   0.000688
     8  C    0.220660  -0.037052
     9  C    0.062066   0.022210
    10  C    0.035217   0.022437
    11  C    0.041700   0.021544
    12  C    0.057022   0.023073
    28  S    0.891359  -0.000075
    29  O   -0.511283   0.000020
    30  O   -0.570106   0.000026
    31  C    0.150622  -0.000006
 Electronic spatial extent (au):  <R**2>=           4770.2100
 Charge=             -0.0000 electrons
 Dipole moment (field-independent basis, Debye):
    X=              4.2214    Y=              1.8500    Z=             -2.1126  Tot=              5.0701
 Quadrupole moment (field-independent basis, Debye-Ang):
   XX=           -107.9217   YY=           -109.0495   ZZ=           -116.0683
   XY=              5.5867   XZ=              6.6237   YZ=             -0.6274
 Traceless Quadrupole moment (field-independent basis, Debye-Ang):
   XX=              3.0914   YY=              1.9637   ZZ=             -5.0551
   XY=              5.5867   XZ=              6.6237   YZ=             -0.6274
 Octapole moment (field-independent basis, Debye-Ang**2):
  XXX=            188.4822  YYY=             -3.8402  ZZZ=              0.3561  XYY=            -14.1475
  XXY=             -8.0992  XXZ=             -8.9935  XZZ=             -0.3931  YZZ=              6.0130
  YYZ=             -2.3737  XYZ=              0.5446
 Hexadecapole moment (field-independent basis, Debye-Ang**3):
 XXXX=          -3974.5002 YYYY=          -1373.5474 ZZZZ=           -674.5810 XXXY=            -16.2668
 XXXZ=            123.4577 YYYX=            -15.9139 YYYZ=              0.9391 ZZZX=            -11.5546
 ZZZY=             -2.0664 XXYY=           -935.7388 XXZZ=           -857.0478 YYZZ=           -349.0916
 XXYZ=             -4.2927 YYXZ=             -4.3977 ZZXY=             14.8068
 N-N= 1.521102132244D+03 E-N=-6.497608548164D+03  KE= 1.459906640212D+03
                          Isotropic Fermi Contact Couplings
        Atom                 a.u.       MegaHertz       Gauss      10(-4) cm-1
     1  O(17)              0.08619     -52.24760     -18.64324     -17.42792
     2  N(14)              0.10260      33.14989      11.82871      11.05761
     3  C(13)             -0.01581     -17.77797      -6.34362      -5.93009
     4  C(13)             -0.00029      -0.32193      -0.11487      -0.10738
     5  C(13)             -0.00070      -0.78393      -0.27973      -0.26149
     6  C(13)             -0.00071      -0.79441      -0.28347      -0.26499
     7  S(33)              0.00003       0.01074       0.00383       0.00358
     8  C(13)             -0.01601     -17.99311      -6.42039      -6.00185
     9  C(13)              0.01620      18.20946       6.49759       6.07402
    10  C(13)              0.01520      17.08572       6.09661       5.69918
    11  C(13)              0.01419      15.95401       5.69279       5.32168
    12  C(13)              0.01713      19.25911       6.87213       6.42415
    13  H(1)              -0.00036      -1.59286      -0.56837      -0.53132
    14  H(1)              -0.00003      -0.13232      -0.04722      -0.04414
    15  H(1)               0.00004       0.19478       0.06950       0.06497
    16  H(1)              -0.00036      -1.59164      -0.56794      -0.53091
    17  H(1)               0.00041       1.82586       0.65151       0.60904
    18  H(1)              -0.00052      -2.31471      -0.82595      -0.77211
    19  H(1)              -0.00051      -2.29886      -0.82029      -0.76682
    20  H(1)               0.00030       1.35393       0.48312       0.45162
    21  H(1)              -0.00038      -1.69655      -0.60537      -0.56591
    22  H(1)              -0.00038      -1.69362      -0.60432      -0.56493
    23  H(1)               0.00026       1.15092       0.41068       0.38391
    24  H(1)              -0.00049      -2.17003      -0.77432      -0.72384
    25  H(1)              -0.00051      -2.26313      -0.80754      -0.75490
    26  H(1)               0.00047       2.08402       0.74363       0.69515
    27  H(1)              -0.00036      -1.61208      -0.57523      -0.53773
    28  S(33)             -0.00001      -0.00252      -0.00090      -0.00084
    29  O(17)             -0.00001       0.00494       0.00176       0.00165
    30  O(17)             -0.00002       0.01318       0.00470       0.00440
    31  C(13)              0.00001       0.00794       0.00283       0.00265
    32  H(1)               0.00000       0.00013       0.00005       0.00004
    33  H(1)               0.00000       0.00497       0.00177       0.00166
    34  H(1)              -0.00000      -0.00009      -0.00003      -0.00003
 --------------------------------------------------------
       Center         ----  Spin Dipole Couplings  ----
                      3XX-RR        3YY-RR        3ZZ-RR
 --------------------------------------------------------
     1   Atom       -0.481245     -0.898137      1.379382
     2   Atom       -0.256975     -0.568252      0.825227
     3   Atom       -0.006633      0.010362     -0.003729
     4   Atom        0.006137     -0.005360     -0.000777
     5   Atom        0.009257     -0.007050     -0.002207
     6   Atom        0.002043     -0.001287     -0.000756
     7   Atom        0.003104     -0.001522     -0.001582
     8   Atom        0.000931      0.005159     -0.006090
     9   Atom       -0.010991      0.001186      0.009805
    10   Atom       -0.008116      0.018289     -0.010173
    11   Atom        0.001503      0.001011     -0.002514
    12   Atom       -0.017019      0.017916     -0.000897
    13   Atom        0.001680     -0.001163     -0.000517
    14   Atom        0.001435     -0.001233     -0.000201
    15   Atom        0.001181     -0.000688     -0.000493
    16   Atom        0.003352     -0.003335     -0.000017
    17   Atom        0.000396      0.002107     -0.002502
    18   Atom       -0.002202      0.004008     -0.001806
    19   Atom       -0.004913      0.010101     -0.005188
    20   Atom       -0.001181      0.003931     -0.002750
    21   Atom       -0.005480      0.000460      0.005020
    22   Atom       -0.005365     -0.002181      0.007546
    23   Atom       -0.002598      0.003549     -0.000951
    24   Atom       -0.002188      0.004681     -0.002492
    25   Atom       -0.004455      0.008976     -0.004521
    26   Atom       -0.002724      0.005331     -0.002607
    27   Atom       -0.000147      0.001779     -0.001633
    28   Atom        0.001438     -0.000736     -0.000702
    29   Atom        0.001499     -0.000704     -0.000795
    30   Atom        0.001085     -0.000608     -0.000477
    31   Atom        0.000673     -0.000333     -0.000339
    32   Atom        0.000627     -0.000313     -0.000314
    33   Atom        0.000523     -0.000251     -0.000272
    34   Atom        0.000554     -0.000286     -0.000267
 --------------------------------------------------------
                        XY            XZ            YZ
 --------------------------------------------------------
     1   Atom       -0.229095      1.189823     -0.488766
     2   Atom       -0.149187      0.717071     -0.295642
     3   Atom       -0.006495     -0.001666      0.006964
     4   Atom       -0.006393     -0.006323      0.003460
     5   Atom        0.002358     -0.006937     -0.001756
     6   Atom        0.000888     -0.001736     -0.000388
     7   Atom        0.001363      0.000670      0.000360
     8   Atom        0.011280     -0.002056     -0.003411
     9   Atom        0.010458      0.008341      0.022227
    10   Atom       -0.012541      0.005109     -0.018060
    11   Atom        0.014962      0.014290      0.017806
    12   Atom       -0.004447      0.000162     -0.023240
    13   Atom       -0.002692     -0.002899      0.001843
    14   Atom        0.000292     -0.001650     -0.000232
    15   Atom        0.001538     -0.001638     -0.000937
    16   Atom        0.003770      0.007335      0.002001
    17   Atom        0.005201      0.000589      0.001075
    18   Atom        0.005249      0.002145      0.008044
    19   Atom       -0.001225     -0.001335     -0.005479
    20   Atom        0.003225     -0.001006     -0.003262
    21   Atom        0.000850      0.000287     -0.007351
    22   Atom        0.000737      0.003001      0.005426
    23   Atom       -0.000895     -0.000036      0.004748
    24   Atom        0.005397      0.001758      0.007284
    25   Atom       -0.001324     -0.001260     -0.005630
    26   Atom       -0.003467     -0.000613      0.000526
    27   Atom       -0.006134      0.005150     -0.004179
    28   Atom       -0.000194     -0.000189      0.000031
    29   Atom       -0.000549      0.000333     -0.000078
    30   Atom       -0.000361     -0.000559      0.000143
    31   Atom       -0.000042     -0.000051      0.000002
    32   Atom        0.000040      0.000067      0.000003
    33   Atom       -0.000122     -0.000024      0.000004
    34   Atom        0.000023     -0.000138     -0.000003
 --------------------------------------------------------


 ---------------------------------------------------------------------------------
              Anisotropic Spin Dipole Couplings in Principal Axis System
 ---------------------------------------------------------------------------------

       Atom             a.u.   MegaHertz   Gauss  10(-4) cm-1        Axes

              Baa    -1.0623    76.866    27.428    25.640  0.8826 -0.1209 -0.4543
     1 O(17)  Bbb    -0.9957    72.047    25.708    24.032  0.1885  0.9763  0.1065
              Bcc     2.0580  -148.913   -53.136   -49.672  0.4306 -0.1796  0.8845
 
              Baa    -0.6290   -24.259    -8.656    -8.092  0.1807  0.9774  0.1096
     2 N(14)  Bbb    -0.6140   -23.681    -8.450    -7.899  0.8802 -0.1110 -0.4614
              Bcc     1.2430    47.939    17.106    15.991  0.4388 -0.1798  0.8804
 
              Baa    -0.0090    -1.205    -0.430    -0.402  0.8980  0.3809 -0.2202
     3 C(13)  Bbb    -0.0063    -0.841    -0.300    -0.280  0.3299 -0.2521  0.9097
              Bcc     0.0152     2.045     0.730     0.682 -0.2909  0.8896  0.3521
 
              Baa    -0.0083    -1.112    -0.397    -0.371  0.3542  0.9263 -0.1286
     4 C(13)  Bbb    -0.0045    -0.605    -0.216    -0.202  0.4815 -0.0628  0.8742
              Bcc     0.0128     1.717     0.613     0.573  0.8017 -0.3716 -0.4683
 
              Baa    -0.0076    -1.023    -0.365    -0.341 -0.0130  0.9559  0.2933
     5 C(13)  Bbb    -0.0053    -0.714    -0.255    -0.238  0.4489 -0.2565  0.8560
              Bcc     0.0129     1.736     0.620     0.579  0.8935  0.1428 -0.4258
 
              Baa    -0.0016    -0.214    -0.076    -0.071  0.4697 -0.3090  0.8270
     6 C(13)  Bbb    -0.0015    -0.200    -0.071    -0.067 -0.0489  0.9262  0.3739
              Bcc     0.0031     0.414     0.148     0.138  0.8815  0.2161 -0.4199
 
              Baa    -0.0020    -0.082    -0.029    -0.027 -0.1657  0.8584 -0.4855
     7 S(33)  Bbb    -0.0016    -0.065    -0.023    -0.022 -0.2506  0.4395  0.8626
              Bcc     0.0036     0.147     0.052     0.049  0.9538  0.2646  0.1422
 
              Baa    -0.0086    -1.157    -0.413    -0.386  0.6987 -0.6473 -0.3047
     8 C(13)  Bbb    -0.0066    -0.889    -0.317    -0.297  0.3490 -0.0634  0.9350
              Bcc     0.0152     2.046     0.730     0.683  0.6245  0.7596 -0.1816
 
              Baa    -0.0189    -2.539    -0.906    -0.847 -0.5352  0.7362 -0.4142
     9 C(13)  Bbb    -0.0132    -1.772    -0.632    -0.591  0.7929  0.2686 -0.5470
              Bcc     0.0321     4.311     1.538     1.438  0.2914  0.6212  0.7275
 
              Baa    -0.0190    -2.556    -0.912    -0.853  0.1248  0.4657  0.8761
    10 C(13)  Bbb    -0.0126    -1.691    -0.603    -0.564  0.9385  0.2310 -0.2566
              Bcc     0.0316     4.247     1.515     1.416 -0.3219  0.8542 -0.4082
 
              Baa    -0.0187    -2.507    -0.894    -0.836 -0.0660 -0.6412  0.7645
    11 C(13)  Bbb    -0.0128    -1.712    -0.611    -0.571  0.8200 -0.4714 -0.3246
              Bcc     0.0314     4.218     1.505     1.407  0.5685  0.6055  0.5569
 
              Baa    -0.0193    -2.591    -0.924    -0.864  0.7580  0.4082  0.5087
    12 C(13)  Bbb    -0.0146    -1.953    -0.697    -0.652 -0.6480  0.3826  0.6586
              Bcc     0.0339     4.544     1.621     1.516 -0.0742  0.8289 -0.5545
 
              Baa    -0.0028    -1.496    -0.534    -0.499  0.3931  0.8926 -0.2208
    13 H(1)   Bbb    -0.0025    -1.344    -0.479    -0.448  0.5517 -0.0369  0.8332
              Bcc     0.0053     2.840     1.013     0.947  0.7356 -0.4493 -0.5069
 
              Baa    -0.0013    -0.692    -0.247    -0.231  0.2008  0.8522  0.4832
    14 H(1)   Bbb    -0.0012    -0.640    -0.228    -0.213  0.4957 -0.5138  0.7002
              Bcc     0.0025     1.331     0.475     0.444  0.8450  0.0989 -0.5256
 
              Baa    -0.0016    -0.830    -0.296    -0.277 -0.3980  0.8996  0.1796
    15 H(1)   Bbb    -0.0015    -0.798    -0.285    -0.266  0.5008  0.0491  0.8642
              Bcc     0.0031     1.628     0.581     0.543  0.7686  0.4339 -0.4701
 
              Baa    -0.0062    -3.314    -1.183    -1.105  0.6514 -0.4090 -0.6391
    16 H(1)   Bbb    -0.0043    -2.273    -0.811    -0.758  0.0530  0.8647 -0.4994
              Bcc     0.0105     5.587     1.994     1.864  0.7569  0.2914  0.5849
 
              Baa    -0.0041    -2.167    -0.773    -0.723  0.7385 -0.6523  0.1705
    17 H(1)   Bbb    -0.0026    -1.396    -0.498    -0.466 -0.2138  0.0132  0.9768
              Bcc     0.0067     3.563     1.272     1.189  0.6394  0.7578  0.1297
 
              Baa    -0.0079    -4.193    -1.496    -1.398  0.3052 -0.6231  0.7201
    18 H(1)   Bbb    -0.0040    -2.127    -0.759    -0.709  0.8783 -0.1080 -0.4658
              Bcc     0.0118     6.319     2.255     2.108  0.3681  0.7746  0.5143
 
              Baa    -0.0079    -4.200    -1.499    -1.401  0.4895  0.2846  0.8243
    19 H(1)   Bbb    -0.0040    -2.147    -0.766    -0.716  0.8708 -0.1103 -0.4790
              Bcc     0.0119     6.347     2.265     2.117 -0.0454  0.9523 -0.3018
 
              Baa    -0.0041    -2.201    -0.785    -0.734 -0.1616  0.4253  0.8905
    20 H(1)   Bbb    -0.0026    -1.373    -0.490    -0.458  0.9052 -0.2956  0.3054
              Bcc     0.0067     3.574     1.275     1.192  0.3932  0.8554 -0.3372
 
              Baa    -0.0061    -3.262    -1.164    -1.088  0.8047 -0.4857 -0.3414
    21 H(1)   Bbb    -0.0043    -2.308    -0.824    -0.770  0.5934  0.6415  0.4863
              Bcc     0.0104     5.571     1.988     1.858 -0.0172 -0.5939  0.8044
 
              Baa    -0.0061    -3.275    -1.168    -1.092  0.9265  0.2328 -0.2955
    22 H(1)   Bbb    -0.0044    -2.355    -0.840    -0.786 -0.3259  0.8890 -0.3216
              Bcc     0.0106     5.630     2.009     1.878  0.1879  0.3943  0.8996
 
              Baa    -0.0041    -2.185    -0.780    -0.729 -0.2966 -0.5288  0.7952
    23 H(1)   Bbb    -0.0025    -1.347    -0.481    -0.449  0.9513 -0.0903  0.2948
              Bcc     0.0066     3.531     1.260     1.178 -0.0840  0.8440  0.5298
 
              Baa    -0.0075    -4.026    -1.437    -1.343  0.3554 -0.5892  0.7256
    24 H(1)   Bbb    -0.0039    -2.086    -0.744    -0.696  0.8554 -0.1079 -0.5066
              Bcc     0.0115     6.112     2.181     2.039  0.3768  0.8008  0.4657
 
              Baa    -0.0075    -3.981    -1.421    -1.328  0.4823  0.3184  0.8161
    25 H(1)   Bbb    -0.0036    -1.919    -0.685    -0.640  0.8744 -0.1186 -0.4705
              Bcc     0.0111     5.900     2.105     1.968 -0.0530  0.9405 -0.3356
 
              Baa    -0.0041    -2.196    -0.784    -0.732  0.9113  0.3200  0.2590
    26 H(1)   Bbb    -0.0026    -1.364    -0.487    -0.455 -0.2176 -0.1598  0.9629
              Bcc     0.0067     3.560     1.270     1.187 -0.3495  0.9338  0.0760
 
              Baa    -0.0063    -3.381    -1.206    -1.128  0.7594  0.2688 -0.5925
    27 H(1)   Bbb    -0.0042    -2.246    -0.801    -0.749  0.2547  0.7152  0.6509
              Bcc     0.0105     5.627     2.008     1.877 -0.5987  0.6452 -0.4746
 
              Baa    -0.0008    -0.031    -0.011    -0.010  0.0532  0.9368 -0.3459
    28 S(33)  Bbb    -0.0007    -0.029    -0.010    -0.010  0.1125  0.3385  0.9342
              Bcc     0.0015     0.060     0.022     0.020  0.9922 -0.0886 -0.0874
 
              Baa    -0.0008     0.061     0.022     0.020 -0.1351  0.0239  0.9905
    29 O(17)  Bbb    -0.0008     0.060     0.022     0.020  0.2282  0.9736  0.0076
              Bcc     0.0017    -0.121    -0.043    -0.040  0.9642 -0.2270  0.1369
 
              Baa    -0.0007     0.051     0.018     0.017  0.0072  0.8502 -0.5263
    30 O(17)  Bbb    -0.0006     0.046     0.017     0.015  0.3597  0.4889  0.7947
              Bcc     0.0013    -0.097    -0.035    -0.032  0.9330 -0.1951 -0.3023
 
              Baa    -0.0003    -0.046    -0.016    -0.015  0.0506  0.0096  0.9987
    31 C(13)  Bbb    -0.0003    -0.045    -0.016    -0.015  0.0406  0.9991 -0.0117
              Bcc     0.0007     0.091     0.032     0.030  0.9979 -0.0412 -0.0501
 
              Baa    -0.0003    -0.170    -0.061    -0.057 -0.0713  0.0173  0.9973
    32 H(1)   Bbb    -0.0003    -0.168    -0.060    -0.056 -0.0407  0.9990 -0.0202
              Bcc     0.0006     0.338     0.121     0.113  0.9966  0.0420  0.0706
 
              Baa    -0.0003    -0.146    -0.052    -0.049  0.0322  0.0115  0.9994
    33 H(1)   Bbb    -0.0003    -0.144    -0.051    -0.048  0.1520  0.9882 -0.0163
              Bcc     0.0005     0.290     0.103     0.097  0.9878 -0.1525 -0.0301
 
              Baa    -0.0003    -0.155    -0.055    -0.052  0.1639 -0.1897  0.9680
    34 H(1)   Bbb    -0.0003    -0.153    -0.055    -0.051  0.0044  0.9815  0.1916
              Bcc     0.0006     0.308     0.110     0.103  0.9865  0.0271 -0.1618
 

 ---------------------------------------------------------------------------------

 No NMR shielding tensors so no spin-rotation constants.
 Leave Link  601 at Wed Jun 12 15:26:11 2019, MaxMem=  8053063680 cpu:               0.0 elap:               0.4
 (Enter /data2/g16/g16/l9999.exe)
 1\1\GINC-CU08\SP\UPBE1PBE\Gen\C10H18N1O3S2(2)\ROOT\12-Jun-2019\0\\#p g
 en 6d pbe1pbe\\start preoptimized\\0,2\O,0,-3.732982,0.194249,0.926701
 \N,0,-2.618931,0.038069,0.360221\C,0,-2.163833,-1.267829,-0.161232\C,0
 ,-0.875083,-0.854792,-0.807939\C,0,-0.602804,0.445974,-0.655188\C,0,0.
 606445,1.124076,-1.197688\S,0,1.943867,1.444161,0.033285\C,0,-1.695106
 ,1.165435,0.108041\C,0,-1.249336,1.75911,1.447311\C,0,-2.412699,2.2252
 54,-0.732614\C,0,-3.193301,-1.814744,-1.15268\C,0,-1.949442,-2.249264,
 0.994931\H,0,-0.230433,-1.565674,-1.318213\H,0,1.063089,0.537949,-2.00
 0342\H,0,0.387048,2.126395,-1.583368\H,0,-0.690815,1.02674,2.037919\H,
 0,-0.612983,2.637265,1.296761\H,0,-2.138628,2.065391,2.008322\H,0,-3.3
 10992,2.553735,-0.201646\H,0,-1.769885,3.09793,-0.893869\H,0,-2.710398
 ,1.820468,-1.705586\H,0,-3.331885,-1.127758,-1.992764\H,0,-2.867784,-2
 .784133,-1.542776\H,0,-4.154369,-1.943848,-0.644238\H,0,-2.890551,-2.3
 84814,1.53817\H,0,-1.620377,-3.221213,0.612768\H,0,-1.189209,-1.87565,
 1.688599\S,0,2.757123,-0.533188,0.108576\O,0,2.333632,-1.21149,1.35142
 4\O,0,2.504839,-1.178762,-1.205259\C,0,4.510088,-0.17358,0.244546\H,0,
 4.662952,0.442218,1.132487\H,0,4.996013,-1.145987,0.359306\H,0,4.83039
 8,0.331114,-0.667695\\Version=AM64L-G16RevB.01\State=2-A\HF=-1467.5487
 704\S2=0.754985\S2-1=0.\S2A=0.750017\RMSD=8.626e-09\Dipole=1.6622956,0
 .7266736,-0.8292351\Quadrupole=2.2958081,1.4529199,-3.748728,4.1515808
 ,4.9316462,-0.4647931\PG=C01 [X(C10H18N1O3S2)]\\@


 THERE ARE PEOPLE SO ADDICTED TO EXAGERATING THEY
 CAN'T TELL THE TRUTH WITHOUT LYING. -- FORTUNE COOKIE
 Elapsed time:       0 days  0 hours  3 minutes  0.6 seconds.
 File lengths (MBytes):  RWF=    181 Int=      0 D2E=      0 Chk=     15 Scr=      1
 Normal termination of Gaussian 16 at Wed Jun 12 15:26:11 2019.
